
160 atoms
3 atom types
   0.0000000000   11.1504343558 xlo xhi
   0.0000000000   11.1504343558 ylo yhi
   0.0000000000   11.1504343558 zlo zhi
   0.0000000000    0.0000000000    0.0000000000 xy xz yz

Atoms # atomic

     1      1    1.1380424694    8.3316224694    2.3470324694
     2      1    2.4835124694    3.7736824694    6.2333824694
     3      1    2.8159324694    9.6945724694    8.2684024694
     4      1    9.6717124694    3.6078524694    0.3209644694
     5      1   10.2514724694    2.1805724694    3.0148124694
     6      1    2.5001624694    6.6581824694    7.9992324694
     7      1    9.2478124694    9.4606624694    6.9417624694
     8      1    9.4308624694    0.0335024694    4.9265824694
     9      1   10.9223724694   10.6263724694    2.0647324694
    10      1    9.0186024694    0.9837824694    8.1297124694
    11      1    2.4690124694    3.3899124694    2.9845024694
    12      1    7.1508524694    8.5815524694    8.9597424694
    13      1    6.7647024694   10.9016724694    2.6175124694
    14      1    3.5076624694    0.8802324694    3.8092824694
    15      1    3.0785224694    1.1047324694    6.5465224694
    16      1    5.5110824694    2.9071924694    4.1065724694
    17      1    6.0174824694    2.3550524694    7.6639924694
    18      1    6.8875124694    2.1201724694   10.6578724694
    19      1    6.9088724694    8.4277224694    1.0128624694
    20      1    0.5357794694    9.9529724694    7.3333324694
    21      1    9.6350024694    7.3213824694    5.0381524694
    22      1    3.8417324694    6.3348324694    2.8724624694
    23      1   10.6118724694    5.3308224694    7.4850724694
    24      1    5.7261524694    8.3237824694    3.2592124694
    25      1    4.1598424694    7.8260024694    0.3207584694
    26      1    0.4378594694    5.5542524694    1.3382224694
    27      1    3.5827024694    1.6460624694    9.0974524694
    28      1    8.3360824694    3.5482024694    8.6682424694
    29      1    1.8685024694    7.8786124694   10.7143724694
    30      1    7.7641124694    6.2524324694    8.3155724694
    31      1    1.4692324694    2.2338924694    0.5065914694
    32      1   10.0354724694    7.8439024694    0.6938624694
    33      2    5.9239124694    4.9258224694    0.7750474694
    34      2    9.4721924694    1.2256024694   11.0055724694
    35      2    6.0674224694   10.9790724694    8.1666824694
    36      2    3.2735324694    9.5252124694    2.2996924694
    37      2    4.8661524694    7.7868124694    8.8132324694
    38      2    3.5581524694    4.8887224694   10.9913724694
    39      2    9.0631524694    9.4388824694    2.9457224694
    40      2    8.2245624694    5.3022524694    2.4453324694
    41      2    1.4868324694    5.9636524694    4.6992924694
    42      2    4.0299424694    9.3894624694    5.4842224694
    43      2    1.3513924694    4.8129224694    9.3961824694
    44      2    4.2863224694    6.0864924694    6.3675624694
    45      2    4.3946624694    1.3935324694    1.3499724694
    46      2    6.3359424694   10.9093724694   10.8889724694
    47      2    5.3201724694    5.4573524694    4.4084724694
    48      2    8.0048724694    5.9729424694    0.1102044694
    49      2    6.2093024694    0.1000974694    5.2252124694
    50      2   10.5862724694    4.6138524694    3.9965924694
    51      2   10.0644724694    6.9124624694    9.5251624694
    52      2    1.3193024694    1.3158924694    4.4852524694
    53      2    2.9298924694   10.7048724694   10.6587724694
    54      2    1.0025824694   10.7831724694    9.5712124694
    55      2    5.4029924694    4.7541824694    8.8667324694
    56      2    6.2839624694    8.7283024694    6.5099724694
    57      2    7.2807024694    2.8225324694    2.1115524694
    58      2    7.5371924694    5.4515624694    5.4884024694
    59      2    0.3325074694    7.6386924694    6.8911624694
    60      2    1.1873524694    2.6839424694    8.3827224694
    61      2    7.4902924694    2.1543224694    5.2405124694
    62      2    1.3263324694    9.5236724694    4.9284924694
    63      2    9.5013624694    9.6837924694    9.9923724694
    64      2   10.2337724694    2.4281124694    6.3976024694
    65      3    3.2837824694    8.0578624694    9.2599524694
    66      3    8.7399724694    4.4781124694    3.8432324694
    67      3    2.5792324694    9.4977924694    6.3765424694
    68      3    5.2210524694    4.9500524694   10.3600724694
    69      3    3.4349324694    8.9619424694    4.0741724694
    70      3    4.0708224694   10.9350724694    1.9050924694
    71      3    6.1532124694    1.6041424694    1.4219624694
    72      3    6.9269524694   10.7679724694    6.7007624694
    73      3    9.1747324694    9.4148524694    0.9019324694
    74      3    0.5924484694    2.1929324694    6.9192924694
    75      3    5.9138124694    1.7030424694    5.6241724694
    76      3    6.6489824694    4.3377124694    8.0551424694
    77      3    1.8237524694    9.4090224694    9.8639724694
    78      3    5.7430824694    8.2796324694   10.3052724694
    79      3    2.2511024694    4.1922424694    0.9302024694
    80      3    5.1771024694    9.2569924694    7.7871024694
    81      3    9.4403424694    5.5026624694    8.8905024694
    82      3    1.7002724694   11.1387724694    5.4620824694
    83      3    1.8459524694    5.4471424694    3.3077924694
    84      3    8.1263324694    6.5335224694    4.3160024694
    85      3    6.6465224694    4.0717324694    5.0606524694
    86      3    1.7658324694    1.9689824694    9.6548624694
    87      3    4.1528624694    4.2723624694    3.8614824694
    88      3    7.4616624694    7.9877824694    7.0833224694
    89      3   10.2860724694    8.6033724694    2.7208024694
    90      3    2.8549424694    4.2688424694    9.7878424694
    91      3    7.2518524694    1.1035924694    8.6182724694
    92      3    4.2318624694    6.8342524694    4.6444924694
    93      3    2.6994524694    6.1186424694    5.9927624694
    94      3    4.2066024694    7.7655724694    6.6397024694
    95      3    6.5356124694    3.5043124694    0.3897854694
    96      3   10.9219724694   10.1046724694    8.9730724694
    97      3    0.4337224694    4.0675124694   10.4454724694
    98      3    2.7629124694    6.1769624694    0.0428614694
    99      3    7.4829324694    9.0293424694    2.8952624694
   100      3   10.1044724694    0.7119864694    9.7097524694
   101      3    1.2198124694    1.7696024694    2.7843024694
   102      3    0.7704024694    6.2108924694    8.9587324694
   103      3    8.6334624694    6.9092424694    1.5435624694
   104      3    3.8538224694   10.8004724694    9.1876824694
   105      3    4.0886724694    2.0962624694    2.7811024694
   106      3    6.2155724694   10.1607724694    9.4151724694
   107      3   11.0417724694    8.9376224694    5.9692524694
   108      3    0.0591454694   10.6367724694    4.3499324694
   109      3    1.4483624694    8.2434424694    7.8499824694
   110      3   10.3362724694    5.7379124694   10.9477724694
   111      3   10.7339724694    8.2510724694   10.1619724694
   112      3    0.3160184694    6.2198324694    6.2845624694
   113      3   10.3810724694    4.0782024694    5.6068824694
   114      3    5.0229024694    0.8534324694    7.6222524694
   115      3    9.3455524694   10.9783724694    2.8077124694
   116      3    8.7737224694    2.5303024694   10.3027724694
   117      3    2.7183924694    2.8259724694    7.6887324694
   118      3    4.8248724694    4.5596924694    6.0321824694
   119      3    8.7928624694    5.6909924694    6.6293124694
   120      3   10.5113724694    1.6801724694    4.9147524694
   121      3    6.6498824694    6.2534924694    0.6809294694
   122      3    6.4661924694    6.5288924694    6.0611024694
   123      3    9.8490724694    7.6329124694    7.8343624694
   124      3    6.0763324694    6.7977324694    8.4130424694
   125      3    3.2204224694    1.2305424694    0.4111654694
   126      3    7.6146424694    0.5641764694    4.5324824694
   127      3    5.8313824694   10.1847724694    1.2556424694
   128      3    4.6778324694    5.1323224694    1.4508524694
   129      3    8.5629424694    4.5775924694    1.1076024694
   130      3    9.7124424694    0.0129194694    6.6596624694
   131      3   10.6770724694    1.3905024694    1.0082724694
   132      3    4.2371924694    5.9750824694    7.9830724694
   133      3    1.3818524694    0.0920324694    8.1136224694
   134      3    7.3288324694    4.9991924694   10.0685724694
   135      3    1.2620124694    3.9836824694    4.6213524694
   136      3    5.2942924694    0.1818184694    3.9296224694
   137      3    0.7036714694    4.1591124694    7.9579924694
   138      3    2.5949024694    9.5950624694    0.8088644694
   139      3    8.1230924694    7.7157024694   10.4476724694
   140      3    5.4638124694    8.8239424694    5.1688324694
   141      3    1.2476324694    7.6850424694    4.3841124694
   142      3    4.8598024694    3.0405724694    9.0493824694
   143      3    8.5659124694    2.3771724694    6.5395824694
   144      3    6.2618924694    6.2408124694    3.2693824694
   145      3    1.4244024694    0.2257534694   10.9525724694
   146      3    6.9567924694    4.3888024694    2.3764324694
   147      3   10.6166724694    4.1624024694    2.3240524694
   148      3    8.6077724694    2.1838424694    1.4027824694
   149      3    8.6088524694    9.6523324694    8.5477224694
   150      3    4.5874324694   10.7239724694    5.9576824694
   151      3    8.6217524694    9.5764024694    5.0160024694
   152      3   10.6299724694    6.2430424694    3.7844724694
   153      3    5.1157224694    0.8353824694   10.3946724694
   154      3    1.6583924694   10.1385724694    2.9089924694
   155      3    4.2357324694    7.9606724694    2.0399524694
   156      3    0.8371724694    7.3150224694    1.0623124694
   157      3    2.6571724694    2.1660524694    4.6725424694
   158      3   10.1066724694    2.4892824694    8.1437624694
   159      3    7.1844924694    2.4849524694    3.4961124694
   160      3    7.9193224694    0.2956374694   11.1321724694
