ITEM: TIMESTEP
10000
ITEM: NUMBER OF ATOMS
160
ITEM: BOX BOUNDS xy xz yz pp pp pp
1.7942753057551197e-01 1.1329861886424570e+01 0.0000000000000000e+00
1.7942753057551197e-01 1.1329861886424570e+01 0.0000000000000000e+00
1.7942753057551197e-01 1.1329861886424570e+01 0.0000000000000000e+00
ITEM: ATOMS id type x y z
31 1 1.64866 2.41332 0.686019
125 3 3.39985 1.40997 0.590593
101 3 1.39924 1.94903 2.96373
14 1 3.68709 1.05966 3.98871
52 2 1.49873 1.49532 4.66468
157 3 2.8366 2.34548 4.85197
11 1 2.64844 3.56934 3.16393
117 3 2.89782 3.0054 7.86816
74 3 0.771876 2.37236 7.09872
15 1 3.25795 1.28416 6.72595
133 3 1.56128 0.27146 8.29305
27 1 3.76213 1.82549 9.27688
86 3 1.94526 2.14841 9.83429
145 3 1.60383 0.405181 11.132
60 2 1.36678 2.86337 8.56215
79 3 2.43053 4.37167 1.10963
26 1 0.617287 5.73368 1.51765
156 3 1.0166 7.49445 1.24174
98 3 2.94234 6.35639 0.222289
41 2 1.66626 6.14308 4.87872
135 3 1.44144 4.16311 4.80078
83 3 2.02538 5.62657 3.48722
93 3 2.87888 6.29807 6.17219
137 3 0.883099 4.33854 8.13742
6 1 2.67959 6.83761 8.17866
112 3 0.495446 6.39926 6.46399
2 1 2.66294 3.95311 6.41281
43 2 1.53082 4.99235 9.57561
102 3 0.94983 6.39032 9.13816
90 3 3.03437 4.44827 9.96727
97 3 0.61315 4.24694 10.6249
38 2 3.73758 5.06815 11.1708
138 3 2.77433 9.77449 0.988292
36 2 3.45296 9.70464 2.47912
1 1 1.31747 8.51105 2.52646
141 3 1.42706 7.86447 4.56354
62 2 1.50576 9.7031 5.10792
154 3 1.83782 10.318 3.08842
69 3 3.61436 9.14137 4.2536
108 3 0.238573 10.8162 4.52936
82 3 1.8797 11.3182 5.64151
67 3 2.75866 9.67722 6.55597
109 3 1.62779 8.42287 8.02941
20 1 0.715207 10.1324 7.51276
3 1 2.99536 9.874 8.44783
59 2 0.511935 7.81812 7.07059
53 2 3.10932 10.8843 10.8382
65 3 3.46321 8.23729 9.43938
77 3 2.00318 9.58845 10.0434
54 2 1.18201 10.9626 9.75064
29 1 2.04793 8.05804 10.8938
71 3 6.33264 1.78357 1.60139
57 2 7.46013 3.00196 2.29098
45 2 4.57409 1.57296 1.5294
105 3 4.2681 2.27569 2.96053
95 3 6.71504 3.68374 0.569213
16 1 5.69051 3.08662 4.286
159 3 7.36392 2.66438 3.67554
49 2 6.38873 0.279525 5.40464
136 3 5.47372 0.361246 4.10905
17 1 6.19691 2.53448 7.84342
114 3 5.20233 1.03286 7.80168
75 3 6.09324 1.88247 5.8036
18 1 7.06694 2.2996 10.8373
153 3 5.29515 1.01481 10.5741
142 3 5.03923 3.22 9.22881
91 3 7.43128 1.28302 8.7977
121 3 6.82931 6.43292 0.860357
146 3 7.13622 4.56823 2.55586
128 3 4.85726 5.31175 1.63028
33 2 6.10334 5.10525 0.954475
92 3 4.41129 7.01368 4.82392
47 2 5.4996 5.63678 4.5879
87 3 4.33229 4.45179 4.04091
144 3 6.44132 6.42024 3.44881
85 3 6.82595 4.25116 5.24008
22 1 4.02116 6.51426 3.05189
122 3 6.64562 6.70832 6.24053
76 3 6.82841 4.51714 8.23457
118 3 5.0043 4.73912 6.21161
44 2 4.46575 6.26592 6.54699
132 3 4.41662 6.15451 8.1625
68 3 5.40048 5.12948 10.5395
124 3 6.25576 6.97716 8.59247
55 2 5.58242 4.93361 9.04616
134 3 7.50826 5.17862 10.248
155 3 4.41516 8.1401 2.21938
127 3 6.01081 10.3642 1.43507
19 1 7.0883 8.60715 1.19229
25 1 4.33927 8.00543 0.500186
13 1 6.94413 11.0811 2.79694
70 3 4.25025 11.1145 2.08452
140 3 5.64324 9.00337 5.34826
24 1 5.90558 8.50321 3.43864
42 2 4.20937 9.56889 5.66365
94 3 4.38603 7.945 6.81913
72 3 7.10638 10.9474 6.88019
56 2 6.46339 8.90773 6.6894
150 3 4.76686 10.9034 6.13711
80 3 5.35653 9.43642 7.96653
35 2 6.24685 11.1585 8.34611
37 2 5.04558 7.96624 8.99266
78 3 5.92251 8.45906 10.4847
12 1 7.33028 8.76098 9.13917
106 3 6.395 10.3402 9.5946
46 2 6.51537 11.0888 11.0684
104 3 4.03325 10.9799 9.36711
148 3 8.7872 2.36327 1.58221
131 3 10.8565 1.56993 1.1877
4 1 9.85114 3.78728 0.500392
61 2 7.66972 2.33375 5.41994
120 3 10.6908 1.8596 5.09418
126 3 7.79407 0.743604 4.71191
5 1 10.4309 2.36 3.19424
8 1 9.61029 0.21293 5.10601
130 3 9.89187 0.192347 6.83909
158 3 10.2861 2.66871 8.32319
64 2 10.4132 2.60754 6.57703
143 3 8.74534 2.5566 6.71901
10 1 9.19803 1.16321 8.30914
100 3 10.2839 0.891414 9.88918
116 3 8.95315 2.70973 10.4822
34 2 9.65162 1.40503 11.185
28 1 8.51551 3.72763 8.84767
160 3 8.09875 0.475065 11.3116
147 3 10.7961 4.34183 2.50348
48 2 8.1843 6.15237 0.289632
103 3 8.81289 7.08867 1.72299
129 3 8.74237 4.75702 1.28703
40 2 8.40399 5.48168 2.62476
21 1 9.81443 7.50081 5.21758
84 3 8.30576 6.71295 4.49543
66 3 8.9194 4.65754 4.02266
50 2 10.7657 4.79328 4.17602
152 3 10.8094 6.42247 3.9639
58 2 7.71662 5.63099 5.66783
23 1 10.7913 5.51025 7.6645
119 3 8.97229 5.87042 6.80874
30 1 7.94354 6.43186 8.495
113 3 10.5605 4.25763 5.78631
110 3 10.5157 5.91734 11.1272
51 2 10.2439 7.09189 9.70459
81 3 9.61977 5.68209 9.06993
32 1 10.2149 8.02333 0.87329
73 3 9.35416 9.59428 1.08136
9 1 11.1018 10.8058 2.24416
89 3 10.4655 8.7828 2.90023
39 2 9.24258 9.61831 3.12515
151 3 8.80118 9.75583 5.19543
115 3 9.52498 11.1578 2.98714
99 3 7.66236 9.20877 3.07469
88 3 7.64109 8.16721 7.26275
123 3 10.0285 7.81234 8.01379
7 1 9.42724 9.64009 7.12119
107 3 11.2212 9.11705 6.14868
111 3 10.9134 8.4305 10.3414
63 2 9.68079 9.86322 10.1718
149 3 8.78828 9.83176 8.72715
96 3 11.1014 10.2841 9.1525
139 3 8.30252 7.89513 10.6271
