
160 atoms
3 atom types
   0.0000000000   11.5092894170 xlo xhi
   0.0000000000   11.5092894170 ylo yhi
   0.0000000000   11.5092894170 zlo zhi
   0.0000000000    0.0000000000    0.0000000000 xy xz yz

Atoms # atomic

     1      1    5.7562408603    5.0966608603    6.5009208603
     2      1    2.7989508603    5.3291908603    4.7110708603
     3      1   10.2588708603   11.3079808603   10.1754108603
     4      1    9.5486408603    2.9574308603    6.3237108603
     5      1    9.9384608603    6.9268908603    2.4492908603
     6      1    2.4445408603    6.1046808603    7.9543308603
     7      1    8.7128808603    5.7851308603    5.7136708603
     8      1    4.8537408603    5.3654808603    2.1145908603
     9      1    1.1922398603    9.9015808603   11.2346808603
    10      1    8.5796608603   10.1545808603    1.1002408603
    11      1    5.0505808603    2.2042708603    4.8318708603
    12      1    6.3662108603    3.7610008603   11.4687808603
    13      1    8.0205408603    0.6189048603    4.7450508603
    14      1    2.8891108603    4.1768408603   10.1247308603
    15      1    1.5351738603    0.4590108603    8.6785008603
    16      1    5.6449408603   10.4956508603    7.0730908603
    17      1    6.6005508603    2.8658208603    6.8963408603
    18      1    7.9696208603    9.5281108603    9.3422708603
    19      1    5.1863508603    9.7169908603    0.2895998603
    20      1    1.7623808603    3.0154708603    3.1647308603
    21      1    0.0670038603    4.7858408603    0.4543318603
    22      1    3.3012808603    9.3014908603    9.2529508603
    23      1   10.3408708603   11.0047808603    7.0616308603
    24      1    4.7561608603    2.0573308603    8.4547008603
    25      1    4.1499008603    7.0599808603    0.1354258603
    26      1    3.3307608603    8.4768608603    3.2761508603
    27      1    8.2386308603    4.9150108603    8.3841508603
    28      1    1.2992288603    0.0305708603    2.5578008603
    29      1    0.8079992603   10.1261408603    5.4150408603
    30      1    8.7719908603    2.6802908603    9.6154408603
    31      1    7.5580508603    1.1308308603    1.8514308603
    32      1    8.3561008603    8.4009008603    6.7097008603
    33      2    1.5436868603    6.0880008603    2.1451008603
    34      2    1.5286818603    1.3002798603   11.4511808603
    35      2    3.6564908603    0.4445678603   10.4698808603
    36      2    4.6000508603    0.4418258603    2.3545808603
    37      2    6.3888608603    7.0339308603   10.5736908603
    38      2   10.2984408603    2.8993508603    3.3823708603
    39      2    6.6464008603    9.8475908603    3.0418308603
    40      2    8.9517808603    5.5624608603   10.9254808603
    41      2    0.3307938603    7.2901508603    4.8187608603
    42      2    3.3368708603    0.5429098603    5.6253008603
    43      2    0.0962258603    4.3659008603    7.9823908603
    44      2    5.4062908603    8.0440708603    5.0146608603
    45      2    8.4245208603    4.4428108603    2.1912108603
    46      2   10.4835908603    1.5802058603    1.0006958603
    47      2    6.9579708603    6.9839908603    2.9001108603
    48      2    9.3672408603    9.1197608603    4.1352508603
    49      2    5.1844708603    4.9505508603    9.3053508603
    50      2   11.4709808603    9.4368108603    2.4861008603
    51      2   10.6862408603    7.2909908603    7.4784108603
    52      2    3.7723208603    3.0412408603    1.1103448603
    53      2    6.5409708603    0.9951898603   10.3284008603
    54      2    7.7975808603    0.2975308603    7.8966108603
    55      2    7.0919708603    3.9983008603    4.3687008603
    56      2    2.7867308603    9.1962508603    6.5788608603
    57      2    9.9562308603    7.8685608603   10.8414808603
    58      2    0.0215908603    4.9024608603    5.0630708603
    59      2    0.7481272603    9.4144608603    8.5179608603
    60      2    0.1924698603    2.9982808603   10.0255808603
    61      2    5.1948608603    7.7052708603    8.0911208603
    62      2   10.7688808603    0.5577288603    4.0204408603
    63      2    1.7132038603    7.3795108603   10.9403808603
    64      2    2.8884108603    3.3594908603    6.3105308603
    65      3    3.3654508603    7.9859208603    7.3741408603
    66      3   10.9733808603   10.9579808603    2.8043008603
    67      3    0.4836128603   10.3303008603    9.6354608603
    68      3    6.4792708603    1.0418398603    7.6337208603
    69      3    0.4005698603    8.4514208603    7.2075608603
    70      3    2.4844508603    1.1854268603    1.2860268603
    71      3    6.0065408603    6.5902208603    1.5501798603
    72      3    3.6592808603    2.0242608603   11.0789808603
    73      3   11.3914808603    7.8556208603   10.4010508603
    74      3    1.2666498603    3.5366008603    7.3089808603
    75      3    4.8289008603    9.3571708603    8.3409408603
    76      3    6.2546908603    4.4557908603    8.2181508603
    77      3    6.9611108603    2.4888908603    4.8241108603
    78      3    9.5520508603    0.2201298603    0.7107539603
    79      3    4.6200508603    4.1992708603    0.3906828603
    80      3    1.4499788603    1.8863608603    9.9543508603
    81      3    3.4200708603    5.2081908603    6.5073308603
    82      3    4.8773608603    0.3286108603    6.4093608603
    83      3    1.5941478603    9.2699608603    2.6788308603
    84      3    9.5891408603    8.7402008603    2.5016008603
    85      3    5.3646808603    8.6772108603    3.1263208603
    86      3    1.1402938603    3.0710708603    0.5499418603
    87      3    6.2029508603    0.1379258603    3.5152508603
    88      3    2.5844708603   10.4058408603    5.5426208603
    89      3    7.8691608603    4.4241108603   10.0229208603
    90      3    2.4250608603    8.4279608603    0.3431738603
    91      3    8.3442408603    3.2130008603    7.6844208603
    92      3    3.7506608603    8.0584708603    4.9278508603
    93      3    8.1497408603   10.2624608603    3.9708208603
    94      3    4.3856608603    3.0370408603    6.7579908603
    95      3    2.6375608603    5.9804708603   10.5520608603
    96      3    9.8464808603    8.9480108603    8.3399208603
    97      3    5.7583108603    5.7132608603   10.7524808603
    98      3    0.6882156603    7.1426708603    3.0491608603
    99      3    3.8709208603   10.5426908603    1.9937308603
   100      3    8.9733708603    6.4813908603    7.3548208603
   101      3    0.9604188603    0.6550172603    4.4755308603
   102      3    7.7805108603    6.9855608603   11.2974808603
   103      3    9.9318508603    6.9795608603    0.4810418603
   104      3    5.9072108603    6.9124608603    6.7056708603
   105      3    3.8788308603    0.7026996603    8.8720008603
   106      3    6.3839208603   10.3686908603    1.4003348603
   107      3    5.8847008603    8.3319608603   11.0241808603
   108      3   10.5337608603    4.6387108603    6.5172508603
   109      3    0.6499904603   10.8162808603    7.2030208603
   110      3    1.2316838603    4.2342908603    9.6108208603
   111      3    1.0448408603    5.9711908603    5.3236908603
   112      3   11.1409808603    8.9106608603    4.0851508603
   113      3   10.4310408603    5.8918208603    4.3797008603
   114      3    1.4390388603    4.8298908603    3.2006008603
   115      3   10.1253208603   10.7239808603    5.3057008603
   116      3    0.2992298603    0.3633338603    0.4297268603
   117      3   11.5069808603    3.5432108603    4.5197908603
   118      3    5.4705408603    4.6625208603    4.3727408603
   119      3    1.7549908603    8.3711208603    5.1570108603
   120      3    3.7846808603    0.9307388603    3.9586108603
   121      3    1.8003008603    8.0916308603    9.3363008603
   122      3    7.3372608603   11.2743808603    9.6550708603
   123      3    6.9878308603    3.8731708603    2.7631608603
   124      3   10.5766808603    2.3142208603   11.0607808603
   125      3    7.9928508603    5.9567908603    2.7908508603
   126      3    9.4360708603    0.1112908603    8.6371508603
   127      3    0.0612428603    2.0913708603    2.5463208603
   128      3    7.4301608603    8.4665608603    2.5635608603
   129      3    8.2938408603    4.7241808603    0.6801994603
   130      3    6.6431608603    7.5681408603    9.1248508603
   131      3    9.2824108603    9.3453908603   10.6103508603
   132      3    6.0306408603    2.5102808603   10.1677708603
   133      3    9.7273908603    1.6366058603    4.5289508603
   134      3    9.4880508603    6.5150408603    9.5667708603
   135      3   11.3402808603    9.5611908603    0.9448908603
   136      3    6.1167208603    9.3881008603    5.6680208603
   137      3    2.3771508603   10.1790808603    7.9281208603
   138      3    0.2461268603    6.1411708603    8.0400008603
   139      3    4.6025208603    6.6311808603    8.9627108603
   140      3   10.5432508603    7.5659408603    5.8820608603
   141      3    2.9963108603    6.6787208603    2.6008708603
   142      3    7.5531008603   10.2273808603    7.2598408603
   143      3    7.6058008603    4.4888108603    5.9150608603
   144      3    4.0474808603    3.9850508603    9.1247308603
   145      3    8.6545808603    0.9623628603    6.5690108603
   146      3    6.6857308603    6.8226708603    4.4946708603
   147      3    8.4246008603    8.0866108603    4.7887508603
   148      3    3.6218308603    3.5200708603    2.5278108603
   149      3    8.9996008603    3.9584408603    3.8124708603
   150      3   10.6842208603    2.9614708603    8.5858708603
   151      3    2.8867208603    3.6518508603    4.8101808603
   152      3    0.9705528603    6.4090608603    0.6956649603
   153      3    5.2075008603    0.0651428603   11.0304808603
   154      3   10.2564508603    4.7320308603    2.3526808603
   155      3    2.5058908603   10.9379808603   10.7969808603
   156      3   10.3776908603    4.5118208603   10.5947908603
   157      3    9.1826608603    2.2558608603    2.2548808603
   158      3    2.4848208603    1.3957298603    6.7525908603
   159      3    5.0308508603    1.8646608603    1.5955628603
   160      3    7.3799508603    1.6005748603    0.1224618603
