ITEM: TIMESTEP
500
ITEM: NUMBER OF ATOMS
160
ITEM: BOX BOUNDS xy xz yz pp pp pp
1.4579817321111133e-01 1.1363491243788861e+01 0.0000000000000000e+00
1.4579817321111133e-01 1.1363491243788861e+01 0.0000000000000000e+00
1.4579817321111133e-01 1.1363491243788861e+01 0.0000000000000000e+00
ITEM: ATOMS id type x y z
34 2 1.21998 1.66923 0.208322
52 2 2.85282 3.41211 1.84044
70 3 2.14083 1.20807 1.63354
36 2 3.86816 0.864252 1.99084
20 1 1.27149 2.46113 5.21569
101 3 0.3816 0.196382 5.26771
28 1 1.2354 0.204513 3.4949
158 3 3.15653 1.37719 5.72346
74 3 1.79385 3.82307 6.49656
15 1 1.83841 1.34879 8.05441
105 3 3.66799 1.57833 8.17182
155 3 2.273 0.704186 10.349
35 2 3.53235 1.59933 9.61282
80 3 0.209245 1.76496 10.3281
110 3 1.26857 2.95235 8.85822
72 3 2.33989 3.03492 11.2928
152 3 0.632744 5.36511 0.906643
33 2 2.01272 5.61376 1.6472
114 3 1.63734 4.18983 2.50742
98 3 0.843602 7.27312 2.85925
2 1 2.97829 6.22846 5.16938
41 2 0.813749 7.34851 4.63799
111 3 0.95901 5.57722 4.70685
141 3 3.142 6.27336 2.95798
151 3 3.26785 4.26471 5.22343
64 2 3.6011 4.31855 6.65352
43 2 0.541955 4.25757 7.65131
138 3 0.952721 5.77339 8.10138
51 2 0.787629 7.46977 7.83421
81 3 3.54872 6.24971 6.74766
144 3 3.25464 4.46759 8.26939
140 3 0.361618 7.55246 6.3037
14 1 1.94004 4.28155 9.93892
73 3 1.03635 7.49818 9.54315
95 3 2.43642 6.09761 11.0986
6 1 3.8341 6.16843 8.74017
83 3 1.35192 9.83094 2.35046
90 3 2.93402 8.36227 1.1216
26 1 2.95644 8.87867 2.70026
9 1 2.02692 10.1512 0.655618
120 3 3.14097 10.8342 3.8598
119 3 2.26854 8.28363 4.88706
56 2 3.16382 8.64942 6.65559
109 3 1.24989 10.766 8.21514
137 3 2.68673 10.1945 6.30915
69 3 2.07693 8.37472 7.69414
29 1 0.874055 9.67041 5.76461
63 2 2.45422 7.75171 11.0163
121 3 2.75114 8.93665 9.94408
67 3 0.400725 9.53901 10.5565
59 2 1.11909 9.52422 9.0066
31 1 6.4993 1.47643 1.32701
148 3 3.94909 2.62111 2.64299
159 3 4.91601 1.30151 0.883486
12 1 5.1498 3.16915 0.236225
11 1 4.40366 3.00051 4.60648
77 3 6.17954 2.6138 4.75915
13 1 7.29137 0.661496 4.91481
87 3 5.36254 0.711585 3.28712
17 1 7.34445 3.45777 7.11457
24 1 5.11007 1.72844 7.15778
82 3 5.15217 0.418442 5.93483
68 3 6.39891 1.9316 8.50711
132 3 4.62299 2.5914 9.75655
53 2 6.29354 1.15175 9.97168
160 3 6.92767 2.0033 11.0045
153 3 4.91727 0.227164 9.81116
47 2 6.92426 7.53159 2.3762
102 3 6.81568 7.42293 0.716329
71 3 5.66192 6.55889 2.29237
25 1 4.22764 6.77713 1.07166
79 3 3.89692 4.62565 1.37546
123 3 6.65117 4.26353 2.47112
146 3 7.39425 7.31862 4.23701
92 3 4.92423 7.04794 4.78947
118 3 5.66158 5.19128 4.70495
55 2 6.90667 4.1686 4.31915
8 1 4.69577 5.32412 2.97287
94 3 5.31807 3.89412 7.30986
1 1 6.09832 5.96598 6.63153
104 3 6.68012 7.58839 6.85699
37 2 5.94161 6.37328 10.1513
49 2 5.00411 4.20103 8.94118
97 3 4.54671 5.32303 10.5477
76 3 6.18147 3.93891 9.90421
89 3 7.36048 5.44129 10.2878
130 3 6.82224 7.50435 9.41308
139 3 5.83674 5.88919 8.61404
19 1 5.14247 9.32045 0.707657
106 3 6.74372 10.4787 0.493918
39 2 6.20387 10.5755 2.8007
99 3 4.15029 10.5945 1.32936
85 3 5.62588 9.06543 2.69079
136 3 7.01743 9.63811 4.69853
44 2 5.92501 8.17426 4.6653
88 3 4.41645 9.28909 5.12598
42 2 3.93369 11.011 5.29
16 1 7.17544 9.76924 6.37509
75 3 5.6545 9.94681 7.97872
61 2 5.96748 8.4093 8.25275
65 3 4.36137 8.02536 8.20135
107 3 4.55371 7.73459 10.6825
22 1 4.20032 10.2029 9.01809
122 3 7.53285 11.2989 9.39159
46 2 9.67984 1.06575 1.04049
157 3 8.63312 2.34469 1.83988
86 3 11.3552 2.57661 1.2756
93 3 7.66908 0.348786 2.905
116 3 10.9471 0.189549 1.06113
78 3 8.53662 0.236834 0.354121
38 2 10.7392 2.70624 2.69565
133 3 9.21379 1.49724 4.5462
117 3 10.7018 3.52068 4.53662
62 2 10.0067 0.171102 4.31884
127 3 11.2111 1.41769 3.38303
4 1 9.56815 2.05576 6.18501
54 2 8.16113 0.771055 8.07737
145 3 7.82993 1.451 6.66057
126 3 9.92285 0.457979 8.30636
150 3 10.7944 2.83257 7.42613
60 2 10.6136 2.48483 9.26235
124 3 9.26927 1.7235 10.621
30 1 8.19453 3.51639 10.3328
91 3 8.59629 2.90102 8.7315
5 1 10.4764 6.22724 2.16716
45 2 8.38886 4.04045 2.32633
154 3 10.259 4.29938 2.26349
125 3 8.30098 6.36182 2.05851
129 3 8.4466 4.60502 0.775861
40 2 8.0826 6.21149 0.398674
21 1 10.6263 4.60886 0.445655
7 1 8.51309 6.21399 5.62268
113 3 9.70735 5.96729 4.40746
58 2 10.7231 4.9926 5.1303
143 3 7.70727 4.72343 5.62469
149 3 8.4307 3.92558 4.04978
100 3 8.16553 5.37567 7.66125
108 3 10.4634 5.11892 6.63836
103 3 9.54138 6.41139 11.1933
134 3 10.2833 7.1001 8.92799
156 3 10.439 4.00435 9.72922
27 1 9.58132 5.32809 8.57124
10 1 8.63081 9.89897 1.4005
50 2 11.3113 8.90949 2.49358
84 3 9.93967 7.85628 2.93673
128 3 7.73239 8.91003 2.60865
135 3 11.2142 8.0442 0.90694
48 2 9.01817 8.60887 3.97511
112 3 11.1893 8.88412 4.42011
147 3 9.27964 8.25186 5.71676
115 3 9.05117 10.2584 5.30456
66 3 9.76158 10.5041 3.04875
23 1 9.95039 10.2466 6.84606
32 1 8.58111 7.89687 7.58268
96 3 11.0791 9.17117 7.80368
142 3 8.16043 10.148 7.85454
57 2 10.4187 7.83604 10.6492
131 3 9.22113 8.81289 10.835
3 1 10.2795 11.1141 10.2686
18 1 7.81972 9.3004 9.6264
ITEM: TIMESTEP
1000
ITEM: NUMBER OF ATOMS
160
ITEM: BOX BOUNDS xy xz yz pp pp pp
2.1790113120596644e-01 1.1291388285793992e+01 0.0000000000000000e+00
2.1790113120596644e-01 1.1291388285793992e+01 0.0000000000000000e+00
2.1790113120596644e-01 1.1291388285793992e+01 0.0000000000000000e+00
ITEM: ATOMS id type x y z
127 3 0.485579 1.92116 2.36441
52 2 2.97403 2.66075 2.2889
70 3 2.21448 1.23872 1.71527
86 3 1.78405 3.63435 1.44592
20 1 1.03653 2.57214 5.16825
114 3 2.03324 2.88246 3.71209
11 1 3.70352 2.54347 4.74545
38 2 0.632409 3.5558 3.04039
43 2 1.14616 3.34668 7.77001
110 3 2.63923 3.0945 8.18277
158 3 2.62208 1.49541 5.96348
150 3 0.459743 2.17433 6.74268
15 1 0.667141 0.253132 7.75308
34 2 1.87063 1.39375 11.0796
80 3 1.45389 1.50961 9.31805
156 3 0.963645 3.4414 10.0702
14 1 2.89972 3.76567 9.80596
72 3 3.08232 2.53598 11.1358
90 3 2.73396 7.18309 1.28801
33 2 1.56279 6.12684 2.61438
95 3 1.10527 5.44588 0.630735
111 3 1.20663 6.01262 5.22748
141 3 2.4564 7.11471 3.71148
152 3 1.84132 4.89469 3.72848
41 2 1.02225 7.5157 4.52931
64 2 3.58244 4.49745 7.11862
81 3 3.63753 6.1376 6.96293
69 3 1.56723 7.53485 7.71915
74 3 2.48459 4.00384 6.06714
51 2 0.304146 5.67935 8.57714
138 3 1.81141 5.58284 8.98752
6 1 3.32834 6.96746 9.10019
63 2 1.87039 6.64487 10.9613
36 2 3.46006 11.1804 1.21077
99 3 3.59066 9.73731 1.13276
83 3 1.03292 9.32107 2.11356
29 1 1.06922 10.3766 5.58253
120 3 2.44208 10.733 3.95889
119 3 1.93714 8.28715 5.62625
42 2 3.44261 11.2135 5.37209
28 1 0.978227 11.1278 2.99781
26 1 2.9061 8.78918 3.17814
88 3 3.83557 9.39765 5.34159
112 3 0.363024 9.08365 4.15011
56 2 3.38314 7.60218 6.30199
137 3 2.3215 10.6218 6.88552
155 3 2.50174 10.8918 10.6997
67 3 1.07879 9.67614 9.06498
107 3 2.69212 7.89362 10.3327
9 1 1.55977 9.34718 11.1699
22 1 2.98882 10.3959 8.60154
148 3 4.36686 2.16102 2.96963
31 1 7.25614 1.40037 0.43978
12 1 5.17009 3.37303 1.02011
123 3 6.93165 2.9346 2.12304
93 3 6.9698 0.306584 2.58096
159 3 4.60147 1.08073 0.583291
13 1 5.95029 1.5958 3.5296
77 3 6.68689 2.87419 4.91362
82 3 4.80393 0.967905 5.67092
68 3 5.85067 2.40144 7.72558
24 1 4.03409 1.82 7.43807
16 1 6.48783 0.86343 6.36972
153 3 6.61002 0.937796 9.61583
53 2 6.60978 2.40608 9.18824
132 3 5.90711 3.17197 10.4869
105 3 4.11649 1.30476 9.33319
79 3 4.29359 4.47201 2.29866
47 2 6.15702 7.59152 2.33386
71 3 5.3869 6.05092 2.58781
25 1 3.98562 5.66843 0.897378
8 1 6.29206 4.61109 3.434
92 3 4.29104 6.91325 4.72743
118 3 6.42851 5.59436 5.60885
151 3 4.57907 3.92528 5.43188
2 1 3.98019 5.25244 3.76336
1 1 6.27025 6.70797 7.46378
94 3 5.17213 4.81218 8.14246
17 1 6.45109 4.05168 6.54936
37 2 6.72435 7.26919 10.2599
49 2 5.71735 4.85377 9.65719
76 3 7.34496 4.27277 8.57512
144 3 4.17896 4.69226 10.7197
139 3 5.16203 6.62214 9.5756
97 3 6.71503 5.55456 10.878
128 3 6.54293 9.38525 2.09407
39 2 5.71292 10.7044 2.08933
87 3 4.2031 10.7808 2.90314
102 3 6.12896 7.83125 0.575843
136 3 5.85483 9.89124 4.48024
44 2 5.14145 8.46647 4.75259
48 2 7.54567 9.20318 4.40735
146 3 7.0326 7.60912 4.11231
85 3 4.71677 8.26315 3.16411
104 3 5.91082 8.49569 6.44279
75 3 5.84898 10.4218 7.7692
61 2 5.35462 8.85247 7.82681
65 3 3.95577 8.10829 7.76373
130 3 6.72514 8.26527 8.74937
18 1 7.06629 10.1538 9.39246
121 3 4.5288 9.60346 9.69801
19 1 4.322 8.38731 11.1259
35 2 5.1726 11.276 9.70865
106 3 5.87831 10.5644 11.0936
46 2 10.4405 1.16954 1.38417
157 3 9.00254 1.83247 2.71004
45 2 8.49768 3.31325 2.2906
78 3 8.89006 0.609916 0.690597
124 3 10.5814 2.54155 0.434367
116 3 11.2788 0.357028 0.304716
133 3 8.93982 2.56488 5.12242
62 2 9.55029 1.31198 4.13595
117 3 10.7128 3.74925 4.4836
101 3 10.9375 0.823465 4.6889
55 2 7.9058 3.71501 4.95863
115 3 8.48296 0.301392 4.7607
4 1 9.7913 2.9208 6.81253
54 2 8.91613 0.626934 7.88914
145 3 10.1275 0.659958 6.88508
122 3 8.08761 1.99954 7.67154
91 3 10.5463 3.15213 8.48083
60 2 11.1167 2.1377 9.77669
160 3 8.25116 2.05022 9.96985
126 3 9.97853 0.763068 9.28007
30 1 8.94642 3.58727 9.35053
129 3 8.72028 4.13168 0.575381
21 1 10.8314 4.23961 0.373025
40 2 8.08462 5.57566 0.56202
103 3 9.85475 6.7756 0.998306
154 3 10.6554 4.42237 2.24727
125 3 7.75239 6.55675 1.81513
5 1 9.55029 6.1393 2.87477
7 1 8.14231 6.72001 5.33809
113 3 9.62881 5.66832 4.90913
149 3 8.24506 4.51195 3.55665
58 2 10.859 5.06981 5.68465
98 3 11.0784 6.86711 3.44921
108 3 11.235 4.57877 7.21249
27 1 8.98463 5.7974 8.35727
143 3 8.43569 4.64412 6.40511
140 3 10.5418 6.48892 7.49649
100 3 8.33812 6.92847 7.12984
134 3 10.4453 4.90766 9.64198
89 3 8.3807 6.58019 10.3724
73 3 11.2847 7.09023 9.99905
57 2 9.91236 7.56902 10.6532
10 1 8.43093 9.89439 1.16403
50 2 10.5836 9.13247 2.23609
66 3 10.2487 10.6993 2.13478
84 3 9.16791 8.56029 2.79982
23 1 9.96953 10.1307 5.31989
147 3 8.55495 9.09767 5.5919
142 3 8.4335 10.3571 8.12006
32 1 8.85649 8.63019 7.28781
109 3 10.8581 9.39465 6.77263
59 2 11.2651 8.53657 8.28058
3 1 10.0599 10.2192 10.1826
131 3 8.22711 9.24925 10.465
96 3 9.90025 8.28682 8.95911
135 3 10.6818 8.90501 11.2416
ITEM: TIMESTEP
1500
ITEM: NUMBER OF ATOMS
160
ITEM: BOX BOUNDS xy xz yz pp pp pp
1.8055658171895228e-01 1.1328732835280970e+01 0.0000000000000000e+00
1.8055658171895228e-01 1.1328732835280970e+01 0.0000000000000000e+00
1.8055658171895228e-01 1.1328732835280970e+01 0.0000000000000000e+00
ITEM: ATOMS id type x y z
116 3 0.746976 1.90619 0.685377
52 2 1.42803 3.18706 1.62698
70 3 2.83557 1.38047 1.71396
20 1 1.03761 1.64231 5.0564
120 3 2.4778 0.545744 4.33034
117 3 0.525114 3.45836 5.54081
74 3 2.9274 3.72944 4.29104
28 1 1.37563 0.565857 3.03618
114 3 0.828357 2.45477 3.22927
15 1 1.93561 1.02489 7.24518
150 3 2.31559 2.46053 6.36106
110 3 2.82211 3.83742 8.19641
64 2 3.0743 3.75241 5.9755
43 2 1.10782 3.89354 7.99255
34 2 3.29874 2.87927 9.45643
155 3 3.25845 1.461 10.1602
156 3 1.06081 2.84137 9.16348
80 3 0.901656 0.510554 9.57995
72 3 2.80446 3.35933 10.8502
79 3 2.90589 4.88764 1.69071
33 2 1.61631 6.3873 1.98382
95 3 0.597713 6.90372 0.625286
90 3 2.92677 7.50369 1.46877
86 3 0.478043 3.95604 0.578629
98 3 0.481522 7.25814 2.96668
152 3 0.566482 5.06384 2.36468
56 2 2.55616 6.49516 5.69958
38 2 1.03684 4.26769 3.67394
141 3 2.29789 5.76528 3.70071
92 3 3.64748 7.02975 4.75987
109 3 0.383812 7.11963 7.26039
81 3 1.95259 5.24905 6.49463
6 1 2.58026 5.96345 8.32074
14 1 2.35945 5.36546 11.0888
138 3 0.877046 5.29822 8.8404
107 3 2.23039 7.37301 9.97223
144 3 3.88764 5.7965 10.4579
83 3 1.45732 9.73481 2.44449
135 3 1.34426 9.3317 0.316933
29 1 1.06516 9.61036 4.5655
26 1 2.60158 7.99383 3.62951
101 3 0.195797 11.07 4.47833
119 3 1.53021 7.63858 4.89811
59 2 1.38637 8.67839 7.28181
137 3 3.04356 11.0028 6.62409
22 1 3.79869 9.66872 7.39316
69 3 2.80176 7.677 7.2046
67 3 1.97628 9.88341 8.22113
63 2 0.981151 7.98108 10.7667
9 1 1.93127 11.2687 11.2518
121 3 3.66376 9.97868 9.69504
19 1 3.55029 8.5792 11.0806
159 3 5.40838 1.88936 0.785987
31 1 6.95927 1.17886 0.770516
12 1 4.24832 3.63113 1.39426
36 2 4.39001 0.585365 1.83917
11 1 4.42982 2.20596 4.40094
8 1 6.2845 3.60194 3.5084
13 1 6.72019 0.478287 3.56054
87 3 4.90128 0.542392 3.51452
148 3 4.504 3.40199 3.04353
77 3 7.31213 2.18855 4.61656
68 3 6.4053 2.44236 8.32142
158 3 4.6561 2.92747 6.22273
24 1 5.48243 1.25946 7.43505
105 3 4.02487 1.74347 8.14985
153 3 5.88035 0.643943 9.9847
53 2 6.09387 2.4119 9.84588
132 3 4.95643 3.47194 9.82589
160 3 7.45877 2.7454 10.7276
35 2 4.33885 0.262131 9.52212
97 3 5.88526 4.48186 0.509808
25 1 4.70677 6.17555 1.11476
40 2 7.40754 4.32727 0.682271
149 3 7.57312 5.19996 3.81574
2 1 3.97538 5.33332 4.16455
146 3 6.04781 7.13577 5.00621
47 2 7.06887 6.62197 3.26411
71 3 5.48527 6.14358 3.01663
1 1 5.05098 7.01856 7.08715
94 3 4.5819 5.63975 8.13284
118 3 6.76971 5.35186 6.56294
151 3 4.31422 5.11889 5.82619
17 1 5.27276 4.29836 7.23845
7 1 7.55122 7.15608 6.10008
139 3 6.0205 6.73273 9.86195
49 2 5.24075 5.24005 9.56938
76 3 6.85764 4.70121 9.058
27 1 7.31306 6.22329 8.54972
93 3 6.48771 10.6188 1.75713
39 2 5.74146 9.13041 1.83723
106 3 7.56566 9.35897 0.226469
102 3 5.38771 8.07264 0.803076
128 3 7.1255 8.38922 2.53354
99 3 4.25283 10.2649 1.54708
136 3 6.61425 9.86232 4.46625
44 2 5.37999 8.44658 4.72692
42 2 4.10334 11.1056 5.27157
85 3 4.68956 8.89775 3.07678
88 3 3.96608 9.59737 4.94245
104 3 5.22017 8.62441 6.34329
75 3 5.59219 10.5528 8.402
61 2 6.22333 9.19053 8.21145
16 1 7.08736 10.3677 6.37892
100 3 7.19929 7.73389 7.40256
82 3 5.49067 11.2297 5.84763
65 3 5.15724 8.33164 8.68289
37 2 7.01722 8.14789 10.6861
46 2 10.2382 1.53444 1.2903
127 3 9.91746 2.74065 2.28591
123 3 7.64881 3.12726 1.97504
78 3 8.84898 0.738263 0.482038
157 3 8.43304 0.919851 2.59276
133 3 9.7555 1.84559 4.23755
45 2 8.78425 2.61427 3.46027
62 2 9.94494 0.2688 3.75106
145 3 10.883 0.935238 6.33505
143 3 8.49846 3.23773 6.20677
54 2 9.85327 0.531341 8.05388
91 3 9.96527 2.24532 8.14332
142 3 8.14811 0.397706 7.46283
4 1 8.09063 1.55765 5.99828
30 1 8.3074 3.27188 8.45222
58 2 10.1608 3.8096 5.95654
124 3 10.0026 2.46067 10.8819
126 3 9.63567 0.410569 9.52738
60 2 11.259 2.01577 10.2674
21 1 9.9407 4.70455 1.0957
125 3 8.18322 5.34118 1.67497
5 1 9.88829 5.95249 3.89272
55 2 7.9255 4.82342 5.37504
84 3 8.55156 7.2617 3.62538
41 2 10.9997 7.15715 5.71966
154 3 9.18065 4.07472 4.3087
113 3 9.11419 5.96863 5.70829
111 3 11.2822 5.37295 5.26805
108 3 10.2682 4.32649 7.4967
140 3 9.31729 6.55452 8.01309
51 2 10.2747 5.53513 8.85516
134 3 9.21545 4.29084 9.56662
89 3 8.30993 6.88227 10.8701
129 3 10.2313 6.01261 10.5525
10 1 8.7446 10.1941 1.37399
50 2 11.2311 8.72542 2.70284
66 3 10.7216 11.2948 1.86401
103 3 10.1246 8.27201 1.57312
115 3 9.77096 9.61093 3.42416
48 2 8.51911 8.97066 4.22816
112 3 10.7021 8.37162 4.76254
122 3 8.72636 10.9425 4.93816
32 1 9.23419 8.40663 7.55659
96 3 10.2253 10.1243 7.68738
23 1 10.2407 10.1066 5.79611
147 3 8.61559 8.77239 5.97187
3 1 11.1152 10.0367 9.68914
131 3 9.48491 9.45548 10.5092
18 1 8.1937 10.8272 10.1106
57 2 9.86463 7.80333 10.9141
73 3 11.034 8.02602 9.53324
130 3 7.76013 9.41934 8.96804
ITEM: TIMESTEP
2000
ITEM: NUMBER OF ATOMS
160
ITEM: BOX BOUNDS xy xz yz pp pp pp
2.3632438227773989e-01 1.1272965034722208e+01 0.0000000000000000e+00
2.3632438227773989e-01 1.1272965034722208e+01 0.0000000000000000e+00
2.3632438227773989e-01 1.1272965034722208e+01 0.0000000000000000e+00
ITEM: ATOMS id type x y z
148 3 1.78673 3.4727 2.92701
86 3 1.2674 3.53091 0.793711
70 3 2.48623 0.579796 1.02514
52 2 0.683868 2.39504 2.20352
72 3 3.70757 2.68284 0.866398
11 1 2.93718 2.06547 3.87918
120 3 2.96342 0.674235 5.50233
114 3 0.933056 1.32172 3.70904
87 3 3.17328 0.457702 3.30369
108 3 0.58529 3.75626 7.18405
150 3 2.6369 2.26049 6.6596
43 2 1.5872 2.68093 8.10333
145 3 0.976244 0.987805 8.00147
64 2 3.37151 3.59854 6.44845
105 3 3.07709 1.83387 8.91278
9 1 2.31789 1.89519 10.56
156 3 0.603113 2.62546 9.75844
110 3 2.45434 3.8615 9.25874
79 3 3.03211 5.5026 1.94174
33 2 2.05114 6.4866 2.20249
95 3 0.796341 6.64564 1.12429
14 1 2.64047 4.57891 0.365399
38 2 0.971883 4.78822 3.85512
111 3 0.677734 5.63358 5.6841
141 3 2.41447 6.12331 4.0097
41 2 0.547406 7.29703 5.00111
74 3 2.28461 4.14125 5.02299
109 3 0.740197 7.01266 7.78467
81 3 2.80117 4.8836 7.38
56 2 2.56784 5.82793 5.77472
119 3 2.0971 7.3143 5.96545
107 3 2.92622 6.98535 10.9985
6 1 2.45442 5.77292 8.99211
138 3 0.707268 5.59875 10.0485
28 1 0.974301 10.771 1.11324
26 1 3.2343 9.52092 2.76557
90 3 2.40999 7.97464 2.14935
83 3 1.02422 9.97324 2.79377
135 3 1.62764 9.19651 0.353979
29 1 1.31204 10.0295 4.72913
88 3 3.10722 9.18871 4.40631
59 2 1.61809 8.3351 7.32636
67 3 1.49923 9.65145 6.53163
15 1 2.64161 10.8128 7.2326
3 1 1.12012 9.53323 9.52193
19 1 3.07098 10.0486 11.0873
121 3 2.74295 10.5369 8.99571
63 2 1.45508 7.60735 11.1211
69 3 2.74917 8.24777 8.57289
93 3 5.74134 1.82868 2.02591
97 3 7.20397 3.23355 1.03269
36 2 3.99832 1.18831 1.4454
77 3 7.35277 2.53028 4.67421
17 1 5.6881 2.99046 5.70895
159 3 4.72582 3.31119 3.54271
13 1 6.44976 0.416354 3.51906
82 3 5.24674 1.29804 4.94404
24 1 4.57657 0.975679 7.30863
68 3 6.74008 1.64574 7.27616
158 3 4.64799 3.15455 7.231
53 2 6.58775 3.78435 8.09769
155 3 4.59299 0.602983 10.8991
34 2 4.24736 3.53771 8.94553
132 3 5.67945 2.77307 9.34117
31 1 6.35641 1.32701 10.9427
153 3 5.62864 0.736865 8.8073
71 3 5.49718 5.6075 1.94483
12 1 5.55932 4.30445 0.611173
8 1 6.51431 4.04934 2.95165
25 1 4.22112 6.92294 1.32423
149 3 7.55491 7.03337 1.95911
151 3 4.5573 4.77177 5.59954
118 3 6.8257 5.68542 4.08246
85 3 4.73494 6.64516 4.01466
55 2 7.39266 5.17346 5.47415
2 1 4.06963 4.98441 3.67317
47 2 6.44444 6.80111 3.206
1 1 5.06318 6.21366 6.89254
143 3 6.87221 4.08619 6.59748
100 3 7.27383 6.54289 6.50894
76 3 5.82902 5.12151 8.0768
139 3 7.10383 5.37769 10.6998
49 2 5.52171 5.96103 9.72514
144 3 4.50546 4.7608 10.0415
102 3 5.4435 7.3533 10.916
94 3 4.67489 6.65748 8.5767
65 3 7.01906 7.51583 8.80357
99 3 4.48126 10.6453 1.65998
39 2 5.77372 9.8319 1.25736
128 3 4.64418 8.51275 2.12132
115 3 6.584 9.81602 2.54427
136 3 5.21921 9.87378 4.62602
44 2 4.81508 8.16484 4.69626
42 2 4.15378 11.0452 4.5315
146 3 6.35907 7.9686 4.4315
104 3 6.4714 9.57021 7.55201
137 3 4.23279 10.3878 7.09324
16 1 6.72794 10.6338 5.95237
22 1 4.5586 8.43237 8.12062
92 3 4.32546 7.80439 6.21474
75 3 5.03846 9.10281 9.70351
37 2 6.66867 8.92318 10.0294
35 2 4.5314 10.7445 9.35329
106 3 6.63058 10.3192 11.2098
46 2 9.17207 0.911399 1.71494
40 2 8.66123 3.85717 0.567447
123 3 9.93536 2.42102 2.29167
157 3 7.99853 0.93075 2.95638
116 3 10.9277 1.26509 0.950458
154 3 8.31469 3.8392 2.97846
133 3 9.28248 1.52486 4.78377
45 2 8.53609 2.50949 3.70452
117 3 10.8727 3.83203 4.73789
20 1 10.9299 1.53415 5.56809
91 3 9.96925 2.6474 6.50606
4 1 8.36965 1.42093 6.30961
124 3 10.016 3.76067 10.7164
126 3 9.44693 1.88593 9.12521
30 1 10.2524 3.78646 8.73503
60 2 10.2835 1.69043 10.5522
18 1 8.04097 0.946345 8.75405
78 3 8.75835 1.61044 11.0695
54 2 10.7101 0.465711 8.51445
21 1 10.976 4.93008 0.657487
125 3 9.22816 5.57157 1.03919
57 2 8.13982 6.48204 0.514983
152 3 10.9887 5.05055 2.85212
84 3 9.0304 7.3316 4.51288
98 3 11.115 7.50811 3.35483
5 1 8.93181 5.57475 3.43709
113 3 8.9856 4.63158 5.27556
7 1 9.27258 7.22963 6.51316
58 2 10.4377 4.1669 6.32594
134 3 9.93095 5.13154 7.61872
27 1 8.19596 6.25048 8.58823
129 3 9.19826 6.57159 9.96178
51 2 10.7145 6.65631 9.09524
160 3 7.94168 3.93589 8.97537
10 1 7.92414 9.34052 1.32047
127 3 10.3198 11.0482 2.48217
103 3 10.1599 8.59318 1.13761
50 2 10.5869 8.85362 2.55876
131 3 8.87428 10.6422 0.432893
48 2 8.3071 8.72297 4.44257
101 3 10.5532 10.7489 4.8173
122 3 7.79885 10.4012 4.42734
66 3 9.16734 9.20397 3.19283
62 2 9.33317 10.8952 3.80169
147 3 8.3906 8.95985 6.16463
23 1 10.0594 9.76067 6.50457
140 3 9.38594 7.99308 8.04121
96 3 11.0335 9.93873 8.27549
112 3 10.6723 8.17872 5.79554
61 2 8.02693 8.99314 7.73081
142 3 9.32806 11.2462 7.38507
32 1 9.59569 9.20525 10.048
80 3 10.9185 11.1046 10.2573
89 3 7.9064 7.98832 11.0589
130 3 8.0053 10.0463 9.07467
73 3 11.2516 7.78122 10.0057
ITEM: TIMESTEP
2500
ITEM: NUMBER OF ATOMS
160
ITEM: BOX BOUNDS xy xz yz pp pp pp
1.4931929962240087e-01 1.1359970117377566e+01 0.0000000000000000e+00
1.4931929962240087e-01 1.1359970117377566e+01 0.0000000000000000e+00
1.4931929962240087e-01 1.1359970117377566e+01 0.0000000000000000e+00
ITEM: ATOMS id type x y z
70 3 2.25878 0.846637 1.52338
9 1 2.44882 2.46866 0.407409
74 3 2.09049 3.25535 2.46118
36 2 3.81397 0.800243 1.58714
86 3 1.01747 3.69965 0.757401
11 1 1.20712 1.81597 2.84513
117 3 0.631 3.76816 5.16138
64 2 2.39365 2.75874 4.68986
120 3 1.65661 1.47381 4.50416
87 3 3.84744 1.75824 3.63446
81 3 3.812 3.58854 4.94016
15 1 2.86111 0.566551 7.16677
150 3 2.24887 3.15158 6.2833
43 2 1.13429 3.29901 8.50169
145 3 0.527832 1.77854 7.7726
110 3 2.72274 3.57502 8.79687
105 3 2.97573 1.59668 9.20561
80 3 0.719074 1.62069 10.3491
72 3 3.79582 3.44293 10.883
79 3 3.69976 5.55854 1.38265
33 2 2.63955 6.50047 1.93413
95 3 1.23246 6.25409 0.897116
38 2 0.608202 4.32198 2.75484
141 3 1.70739 5.87161 3.24297
41 2 1.03351 7.20233 4.66598
2 1 3.81923 4.33688 3.16516
111 3 0.210631 5.94969 5.60735
119 3 2.48366 6.5109 6.15615
108 3 1.2074 4.87845 7.7654
6 1 2.67542 4.76652 6.83065
138 3 0.557035 5.33359 10.1909
14 1 2.58359 4.57076 10.5656
51 2 0.484104 6.36551 8.75541
26 1 1.72681 10.3746 2.6161
135 3 1.0454 9.56599 1.06439
63 2 0.968767 7.90536 0.389672
90 3 3.00242 8.16396 1.94104
19 1 3.32684 9.49364 0.305227
99 3 3.73254 10.5249 2.04337
29 1 1.38732 9.70996 5.01745
88 3 2.63836 10.61 4.36006
98 3 2.13474 8.21438 4.26274
83 3 0.334266 9.54758 3.50424
44 2 3.7015 9.61229 4.78903
59 2 2.12619 7.96371 7.09318
67 3 2.27929 9.65591 7.08029
69 3 3.24542 7.93792 8.26318
112 3 0.359143 8.08988 5.94996
109 3 0.962773 7.98207 8.40388
3 1 1.64988 9.318 9.57887
121 3 2.26918 11.0698 10.2608
107 3 2.34169 7.9219 10.8183
28 1 0.695346 10.8837 11.1479
93 3 4.77139 1.94098 1.40406
8 1 6.43981 2.76448 2.51809
97 3 7.27031 2.96306 0.701992
78 3 7.61836 0.177745 0.471693
136 3 5.84443 0.534868 2.75971
82 3 5.17859 0.591094 5.60192
159 3 6.18189 2.72365 4.20612
42 2 5.44546 1.26025 4.14951
17 1 5.25786 3.11709 5.72254
24 1 5.95638 0.68597 7.29084
143 3 7.42858 3.81872 6.75904
158 3 4.75538 2.07994 7.38127
53 2 6.47771 3.83764 8.09027
77 3 7.33763 1.33763 6.0074
153 3 6.14443 0.479137 9.6459
34 2 4.00547 2.59891 8.84226
132 3 5.43383 3.47608 9.12049
68 3 7.36358 2.56735 8.64468
155 3 4.53741 0.272765 11.0155
31 1 5.98143 1.65454 11.3354
71 3 5.65394 4.21543 2.11982
57 2 7.47358 6.4754 0.808817
128 3 6.24022 6.61256 2.47388
125 3 7.62188 5.08792 1.63115
47 2 5.99955 5.37032 3.23385
118 3 6.94049 4.70034 4.56956
85 3 4.51773 5.73656 3.85192
56 2 4.59396 6.67323 5.45368
151 3 5.70647 6.89775 6.95848
94 3 4.27149 5.51978 7.17532
102 3 5.10694 7.35316 9.36592
139 3 6.48832 5.80097 10.8619
25 1 3.9709 7.2616 11.0549
12 1 5.29701 4.40128 11.2652
144 3 3.96441 5.39928 9.92071
49 2 4.94175 5.98678 8.74003
76 3 6.40742 5.38085 8.67773
13 1 7.5807 10.9121 2.53291
39 2 5.5269 8.18757 2.11447
106 3 4.93118 8.74213 0.621571
115 3 6.86508 9.11602 2.41456
89 3 7.10059 8.05259 0.475161
146 3 4.67648 8.46317 3.4176
147 3 6.62572 8.73568 5.1135
104 3 6.752 9.59853 7.74536
1 1 7.12189 7.72321 7.25918
22 1 4.64003 8.82904 7.84521
137 3 4.29415 10.9803 8.07666
16 1 7.2483 10.2052 5.90542
92 3 3.94188 8.303 5.86055
75 3 5.6977 9.40611 9.7139
37 2 6.3823 7.82192 10.0563
35 2 4.70353 10.9569 9.65177
10 1 6.9196 9.9255 11.3301
114 3 10.7761 0.657023 1.66358
116 3 9.54636 2.03753 0.873846
52 2 9.84798 1.94838 2.52002
40 2 8.3421 3.88416 0.445364
148 3 10.8715 3.21239 2.80007
154 3 8.64666 2.37663 3.36835
45 2 8.7358 1.44579 4.816
157 3 10.57 1.05401 4.01595
20 1 11.1673 1.84642 5.4036
91 3 9.94783 3.84805 7.04032
4 1 8.43583 1.86829 7.39408
133 3 9.68087 1.82961 6.12726
60 2 11.1199 2.86132 11.114
126 3 9.53869 1.62254 9.16165
54 2 11.0189 1.05239 8.91058
18 1 7.85891 0.58774 9.80979
30 1 9.13874 3.3709 9.0287
156 3 10.8868 3.21063 9.34542
21 1 10.3884 5.80801 0.822437
124 3 9.84566 3.96468 0.809121
123 3 10.6617 5.47621 2.765
5 1 8.81326 5.12607 3.20257
113 3 9.52281 4.53249 4.92809
152 3 10.7958 7.40455 3.73897
84 3 7.97208 6.89171 5.1677
7 1 9.60597 7.15984 5.7507
149 3 8.51233 7.38125 3.05538
134 3 10.0129 6.28744 8.49446
58 2 10.8811 4.49779 5.86036
100 3 8.43763 5.9094 7.44594
55 2 7.78491 5.19238 5.99985
160 3 7.97496 4.17643 10.1979
129 3 8.79609 6.14705 11.2842
27 1 8.1994 5.88189 9.33988
65 3 7.78286 7.56657 9.17405
50 2 9.99699 8.11356 2.56746
127 3 9.17126 10.0233 2.04119
46 2 9.44376 11.3587 0.752579
103 3 10.0436 7.91633 1.06448
62 2 10.5175 10.6484 4.2215
101 3 10.8713 11.0586 5.7309
48 2 7.80462 8.27578 4.06455
66 3 9.35698 9.02487 4.51477
122 3 8.73653 10.9734 4.19305
140 3 8.98482 8.24985 7.36237
23 1 11.0822 9.71129 7.02513
61 2 8.35612 9.62083 8.09553
142 3 8.59104 11.2662 7.40341
32 1 9.22772 8.36609 10.2585
131 3 10.0225 10.5947 10.6292
130 3 8.25139 9.8788 9.71702
73 3 11.2653 7.99557 10.2098
96 3 10.8398 10.6784 8.62468
ITEM: TIMESTEP
3000
ITEM: NUMBER OF ATOMS
160
ITEM: BOX BOUNDS xy xz yz pp pp pp
1.2940504529553110e-01 1.1379884371704435e+01 0.0000000000000000e+00
1.2940504529553110e-01 1.1379884371704435e+01 0.0000000000000000e+00
1.2940504529553110e-01 1.1379884371704435e+01 0.0000000000000000e+00
ITEM: ATOMS id type x y z
86 3 0.658346 2.20901 1.09304
74 3 2.90283 3.25675 2.41515
70 3 2.69245 0.77884 1.22158
120 3 1.34877 1.18635 3.97545
64 2 2.47851 2.29732 4.26521
81 3 2.0083 3.40071 5.25075
15 1 2.95064 1.72287 7.4261
145 3 1.13068 2.15706 8.13132
43 2 1.22009 3.67005 8.35876
150 3 2.85862 0.691574 5.883
158 3 3.72297 3.45237 7.44803
9 1 2.09463 1.51714 10.9361
80 3 0.270116 0.70319 9.68818
110 3 2.61926 3.50689 9.78002
79 3 1.97173 4.97504 0.995053
33 2 2.70526 6.64183 1.7569
103 3 0.2846 7.25186 1.4882
38 2 1.23259 4.21771 2.37245
141 3 2.18074 5.18446 3.42733
41 2 0.981681 6.41701 4.61724
98 3 2.24497 7.22895 3.29898
6 1 3.02495 5.08739 6.54094
69 3 3.36011 7.61834 7.86802
109 3 0.610401 7.39652 7.17887
51 2 0.449205 6.51586 8.43533
111 3 0.269926 5.32765 5.80539
119 3 2.34861 6.41305 5.84355
138 3 0.900904 7.22559 9.94984
14 1 2.26683 5.84123 10.0943
108 3 1.69531 5.40058 8.57285
19 1 3.66521 9.64262 0.636005
135 3 0.543203 9.79755 0.852025
95 3 2.72688 8.00959 0.826725
26 1 1.00345 10.7778 2.79643
29 1 0.72574 10.4944 5.66985
88 3 2.23652 10.07 3.94036
44 2 3.09748 8.62155 4.02219
112 3 0.88256 8.31189 5.35245
22 1 3.78741 10.2946 6.97479
67 3 2.1179 9.5775 7.10823
59 2 2.14116 7.94814 6.62247
121 3 3.08573 11.3616 8.35102
25 1 3.43411 8.9937 8.92626
107 3 2.24903 9.30324 10.4821
3 1 1.1307 10.3412 9.25617
63 2 1.24539 8.30546 11.2189
97 3 7.59696 1.69333 0.833326
8 1 6.70249 2.1749 2.54237
93 3 5.23572 2.24047 1.45614
36 2 4.06894 1.2316 1.77932
11 1 3.9694 3.60446 0.953147
42 2 4.20064 0.911086 4.88818
159 3 6.04391 1.019 4.0609
118 3 6.5436 3.49272 4.08005
87 3 4.0925 2.7268 4.74781
136 3 3.92137 1.00138 3.35239
45 2 7.29843 1.38482 4.84257
24 1 7.15349 1.5124 7.783
17 1 5.09336 3.51825 5.95463
137 3 5.1707 0.683247 7.502
77 3 6.29439 2.24035 6.13228
35 2 4.50679 0.427127 9.14765
31 1 5.81781 2.18243 10.894
105 3 3.9391 1.52747 10.0716
34 2 4.15673 3.49558 9.00851
132 3 5.89654 2.88487 8.82232
72 3 4.75586 3.78915 10.6052
153 3 6.58357 0.320259 9.78281
90 3 4.20691 6.39424 1.30401
71 3 5.37784 4.33824 2.17606
128 3 6.68751 6.02679 1.46603
39 2 5.40745 7.38381 2.03641
85 3 4.27471 5.39201 5.11528
146 3 5.51767 6.78028 3.57032
56 2 5.45825 6.4656 5.6597
2 1 4.06817 5.09548 3.3161
48 2 7.46086 7.2967 3.7411
47 2 6.83607 4.77 3.0899
122 3 6.54845 7.58303 5.06011
1 1 7.1112 7.56484 7.28177
151 3 5.31792 7.08499 7.13418
84 3 6.48963 5.21998 6.05465
139 3 7.24985 6.57416 10.5928
144 3 4.47529 6.99768 10.3424
94 3 4.01663 5.1535 8.8263
53 2 7.03966 4.03513 9.09406
76 3 6.30306 5.48716 8.65765
160 3 7.09215 4.11133 10.8207
12 1 5.34676 5.36997 11.0155
49 2 4.84464 6.48267 8.82224
106 3 5.7342 8.90268 0.732506
155 3 5.09488 11.3376 1.15234
115 3 6.9868 8.26283 2.49803
99 3 4.23857 8.45209 2.65168
78 3 7.3422 10.7995 2.05234
10 1 6.44212 10.6536 0.218498
13 1 5.98357 10.0987 3.14672
82 3 4.70276 10.6296 5.08464
92 3 4.20112 8.33647 5.52109
16 1 6.28345 10.7779 5.91571
104 3 7.30312 9.80074 7.16695
75 3 4.426 10.4942 10.0834
37 2 6.3174 8.27834 10.5524
102 3 6.00746 8.52222 8.93293
65 3 7.53436 9.45144 10.5666
61 2 7.46215 9.80052 8.69043
40 2 8.14134 3.26192 0.671864
114 3 10.6077 0.217312 2.46207
28 1 10.9736 0.680158 0.678488
154 3 8.48144 1.28425 2.77779
60 2 10.8631 3.21417 0.410535
52 2 9.80888 1.51828 3.35657
148 3 10.9602 3.3662 3.95985
133 3 8.68961 2.01488 4.675
4 1 9.64901 2.24574 6.22979
126 3 9.8946 1.85733 8.2288
142 3 7.94171 0.576617 6.20785
54 2 11.1252 1.09915 8.01463
117 3 11.3129 2.03992 6.14606
58 2 11.3405 3.70258 5.87393
18 1 8.53545 1.13341 9.96263
68 3 8.1478 2.76561 9.42946
116 3 9.47549 2.81213 11.3485
30 1 9.51804 3.81966 8.78247
149 3 9.05982 6.56207 2.02858
57 2 8.37794 6.70321 0.470371
125 3 8.06113 3.99167 2.15348
123 3 10.9385 4.62862 1.29901
50 2 10.3382 7.55732 2.51976
147 3 8.02628 5.64412 3.70506
113 3 9.32613 4.08292 5.37753
152 3 10.8317 6.47109 3.70424
7 1 10.0214 7.4767 5.40871
5 1 9.58235 4.39708 2.97732
100 3 8.82026 6.49718 6.27846
143 3 7.87697 3.96502 7.53239
55 2 8.13143 5.03882 6.00419
91 3 10.9801 4.11173 7.7385
27 1 8.52614 6.59004 9.17811
124 3 8.98123 5.29666 11.2475
134 3 10.2212 6.21242 8.76147
21 1 10.9137 6.02183 10.8933
156 3 11.3232 4.09583 9.96662
129 3 9.38435 7.62285 10.9991
131 3 9.28908 11.3125 0.300836
89 3 9.47638 9.36816 1.59852
46 2 9.00219 10.8257 1.89767
62 2 9.49369 9.96883 4.63942
157 3 10.2381 11.3182 5.09861
66 3 8.80905 7.86994 4.10256
83 3 10.8262 9.52444 3.70683
127 3 7.93727 10.4769 4.39954
96 3 11.1897 10.9142 7.35625
23 1 10.4903 8.99917 7.58663
101 3 9.94368 9.20761 5.93365
20 1 9.19873 11.1587 7.18487
140 3 8.50884 8.34147 8.46855
32 1 9.89826 9.57122 10.9303
130 3 8.75632 10.615 9.05045
73 3 10.9701 9.46557 9.33482
ITEM: TIMESTEP
3500
ITEM: NUMBER OF ATOMS
160
ITEM: BOX BOUNDS xy xz yz pp pp pp