LAMMPS (29 Oct 2020)
Reading data file ...
  triclinic box = (0.0000000 0.0000000 0.0000000) to (11.509289 11.509289 11.509289) with tilt (0.0000000 0.0000000 0.0000000)
  3 by 3 by 4 MPI processor grid
  reading atoms ...
  160 atoms
  read_data CPU = 0.014 seconds
Summary of lammps deepmd module ...
  >>> Info of deepmd-kit:
  installed to:       /u/home/j/jd848/project-lstixrud/dpkit2/deepmd
  source:             
  source branch:       
  source commit:      
  source commit at:   
  surpport model ver.:1.0 
  build float prec:   double
  build with tf inc:  /u/home/j/jd848/project-lstixrud/dpkit2/tensorflow/include;/u/home/j/jd848/project-lstixrud/dpkit2/tensorflow/include
  build with tf lib:  /u/home/j/jd848/project-lstixrud/dpkit2/tensorflow/lib/libtensorflow_cc.so;/u/home/j/jd848/project-lstixrud/dpkit2/tensorflow/lib/libtensorflow_framework.so
  set tf intra_op_parallelism_threads: 0
  set tf inter_op_parallelism_threads: 0
  >>> Info of lammps module:
  use deepmd-kit at:  /u/home/j/jd848/project-lstixrud/dpkit2/deepmd
  source:             
  source branch:      
  source commit:      
  source commit at:   
  build float prec:   double
  build with tf inc:  /u/home/j/jd848/project-lstixrud/dpkit2/tensorflow/include;/u/home/j/jd848/project-lstixrud/dpkit2/tensorflow/include
  build with tf lib:  /u/home/j/jd848/project-lstixrud/dpkit2/tensorflow/lib/libtensorflow_cc.so;/u/home/j/jd848/project-lstixrud/dpkit2/tensorflow/lib/libtensorflow_framework.so
2022-02-17 21:41:50.663202: I tensorflow/core/platform/cpu_feature_guard.cc:142] Your CPU supports instructions that this TensorFlow binary was not compiled to use: SSE4.1 SSE4.2 AVX AVX2 FMA
2022-02-17 21:41:50.663202: I tensorflow/core/platform/cpu_feature_guard.cc:142] Your CPU supports instructions that this TensorFlow binary was not compiled to use: SSE4.1 SSE4.2 AVX AVX2 FMA
2022-02-17 21:41:50.663273: I tensorflow/core/platform/cpu_feature_guard.cc:142] Your CPU supports instructions that this TensorFlow binary was not compiled to use: SSE4.1 SSE4.2 AVX AVX2 FMA
2022-02-17 21:41:50.663202: I tensorflow/core/platform/cpu_feature_guard.cc:142] Your CPU supports instructions that this TensorFlow binary was not compiled to use: SSE4.1 SSE4.2 AVX AVX2 FMA
2022-02-17 21:41:50.663196: I tensorflow/core/platform/cpu_feature_guard.cc:142] Your CPU supports instructions that this TensorFlow binary was not compiled to use: SSE4.1 SSE4.2 AVX AVX2 FMA
2022-02-17 21:41:50.663196: I tensorflow/core/platform/cpu_feature_guard.cc:142] Your CPU supports instructions that this TensorFlow binary was not compiled to use: SSE4.1 SSE4.2 AVX AVX2 FMA
2022-02-17 21:41:50.663196: I tensorflow/core/platform/cpu_feature_guard.cc:142] Your CPU supports instructions that this TensorFlow binary was not compiled to use: SSE4.1 SSE4.2 AVX AVX2 FMA
2022-02-17 21:41:50.664296: I tensorflow/core/platform/cpu_feature_guard.cc:142] Your CPU supports instructions that this TensorFlow binary was not compiled to use: SSE4.1 SSE4.2 AVX AVX2 FMA
2022-02-17 21:41:50.665423: I tensorflow/core/platform/cpu_feature_guard.cc:142] Your CPU supports instructions that this TensorFlow binary was not compiled to use: SSE4.1 SSE4.2 AVX AVX2 FMA
2022-02-17 21:41:50.665465: I tensorflow/core/platform/cpu_feature_guard.cc:142] Your CPU supports instructions that this TensorFlow binary was not compiled to use: SSE4.1 SSE4.2 AVX AVX2 FMA
2022-02-17 21:41:50.665471: I tensorflow/core/platform/cpu_feature_guard.cc:142] Your CPU supports instructions that this TensorFlow binary was not compiled to use: SSE4.1 SSE4.2 AVX AVX2 FMA
2022-02-17 21:41:50.665578: I tensorflow/core/platform/cpu_feature_guard.cc:142] Your CPU supports instructions that this TensorFlow binary was not compiled to use: SSE4.1 SSE4.2 AVX AVX2 FMA
2022-02-17 21:41:50.665764: I tensorflow/core/platform/cpu_feature_guard.cc:142] Your CPU supports instructions that this TensorFlow binary was not compiled to use: SSE4.1 SSE4.2 AVX AVX2 FMA
2022-02-17 21:41:50.665897: I tensorflow/core/platform/cpu_feature_guard.cc:142] Your CPU supports instructions that this TensorFlow binary was not compiled to use: SSE4.1 SSE4.2 AVX AVX2 FMA
2022-02-17 21:41:50.665922: I tensorflow/core/platform/cpu_feature_guard.cc:142] Your CPU supports instructions that this TensorFlow binary was not compiled to use: SSE4.1 SSE4.2 AVX AVX2 FMA
2022-02-17 21:41:50.666044: I tensorflow/core/platform/cpu_feature_guard.cc:142] Your CPU supports instructions that this TensorFlow binary was not compiled to use: SSE4.1 SSE4.2 AVX AVX2 FMA
2022-02-17 21:41:50.665614: I tensorflow/core/platform/cpu_feature_guard.cc:142] Your CPU supports instructions that this TensorFlow binary was not compiled to use: SSE4.1 SSE4.2 AVX AVX2 FMA
2022-02-17 21:41:50.665582: I tensorflow/core/platform/cpu_feature_guard.cc:142] Your CPU supports instructions that this TensorFlow binary was not compiled to use: SSE4.1 SSE4.2 AVX AVX2 FMA
2022-02-17 21:41:50.665623: I tensorflow/core/platform/cpu_feature_guard.cc:142] Your CPU supports instructions that this TensorFlow binary was not compiled to use: SSE4.1 SSE4.2 AVX AVX2 FMA
2022-02-17 21:41:50.666202: I tensorflow/core/platform/cpu_feature_guard.cc:142] Your CPU supports instructions that this TensorFlow binary was not compiled to use: SSE4.1 SSE4.2 AVX AVX2 FMA
2022-02-17 21:41:50.665725: I tensorflow/core/platform/cpu_feature_guard.cc:142] Your CPU supports instructions that this TensorFlow binary was not compiled to use: SSE4.1 SSE4.2 AVX AVX2 FMA
2022-02-17 21:41:50.666425: I tensorflow/core/platform/cpu_feature_guard.cc:142] Your CPU supports instructions that this TensorFlow binary was not compiled to use: SSE4.1 SSE4.2 AVX AVX2 FMA
2022-02-17 21:41:50.666901: I tensorflow/core/platform/cpu_feature_guard.cc:142] Your CPU supports instructions that this TensorFlow binary was not compiled to use: SSE4.1 SSE4.2 AVX AVX2 FMA
2022-02-17 21:41:50.667206: I tensorflow/core/platform/cpu_feature_guard.cc:142] Your CPU supports instructions that this TensorFlow binary was not compiled to use: SSE4.1 SSE4.2 AVX AVX2 FMA
2022-02-17 21:41:50.667556: I tensorflow/core/platform/cpu_feature_guard.cc:142] Your CPU supports instructions that this TensorFlow binary was not compiled to use: SSE4.1 SSE4.2 AVX AVX2 FMA
2022-02-17 21:41:50.668175: I tensorflow/core/platform/cpu_feature_guard.cc:142] Your CPU supports instructions that this TensorFlow binary was not compiled to use: SSE4.1 SSE4.2 AVX AVX2 FMA
2022-02-17 21:41:50.668197: I tensorflow/core/platform/cpu_feature_guard.cc:142] Your CPU supports instructions that this TensorFlow binary was not compiled to use: SSE4.1 SSE4.2 AVX AVX2 FMA
2022-02-17 21:41:50.668241: I tensorflow/core/platform/cpu_feature_guard.cc:142] Your CPU supports instructions that this TensorFlow binary was not compiled to use: SSE4.1 SSE4.2 AVX AVX2 FMA
2022-02-17 21:41:50.668392: I tensorflow/core/platform/cpu_feature_guard.cc:142] Your CPU supports instructions that this TensorFlow binary was not compiled to use: SSE4.1 SSE4.2 AVX AVX2 FMA
2022-02-17 21:41:50.668425: I tensorflow/core/platform/cpu_feature_guard.cc:142] Your CPU supports instructions that this TensorFlow binary was not compiled to use: SSE4.1 SSE4.2 AVX AVX2 FMA
2022-02-17 21:41:50.668874: I tensorflow/core/platform/cpu_feature_guard.cc:142] Your CPU supports instructions that this TensorFlow binary was not compiled to use: SSE4.1 SSE4.2 AVX AVX2 FMA
2022-02-17 21:41:50.668904: I tensorflow/core/platform/cpu_feature_guard.cc:142] Your CPU supports instructions that this TensorFlow binary was not compiled to use: SSE4.1 SSE4.2 AVX AVX2 FMA
2022-02-17 21:41:50.668935: I tensorflow/core/platform/cpu_feature_guard.cc:142] Your CPU supports instructions that this TensorFlow binary was not compiled to use: SSE4.1 SSE4.2 AVX AVX2 FMA
2022-02-17 21:41:50.668960: I tensorflow/core/platform/cpu_feature_guard.cc:142] Your CPU supports instructions that this TensorFlow binary was not compiled to use: SSE4.1 SSE4.2 AVX AVX2 FMA
2022-02-17 21:41:50.668999: I tensorflow/core/platform/cpu_feature_guard.cc:142] Your CPU supports instructions that this TensorFlow binary was not compiled to use: SSE4.1 SSE4.2 AVX AVX2 FMA
2022-02-17 21:41:50.669008: I tensorflow/core/platform/cpu_feature_guard.cc:142] Your CPU supports instructions that this TensorFlow binary was not compiled to use: SSE4.1 SSE4.2 AVX AVX2 FMA
2022-02-17 21:41:50.682490: I tensorflow/core/platform/profile_utils/cpu_utils.cc:94] CPU Frequency: 2199885000 Hz
2022-02-17 21:41:50.682490: I tensorflow/core/platform/profile_utils/cpu_utils.cc:94] CPU Frequency: 2199885000 Hz
2022-02-17 21:41:50.682527: I tensorflow/core/platform/profile_utils/cpu_utils.cc:94] CPU Frequency: 2199885000 Hz
2022-02-17 21:41:50.682709: I tensorflow/core/platform/profile_utils/cpu_utils.cc:94] CPU Frequency: 2199885000 Hz
2022-02-17 21:41:50.682737: I tensorflow/compiler/xla/service/service.cc:168] XLA service 0x5083d00 executing computations on platform Host. Devices:
2022-02-17 21:41:50.682760: I tensorflow/compiler/xla/service/service.cc:175]   StreamExecutor device (0): <undefined>, <undefined>
2022-02-17 21:41:50.682747: I tensorflow/compiler/xla/service/service.cc:168] XLA service 0x3c00d00 executing computations on platform Host. Devices:
2022-02-17 21:41:50.682770: I tensorflow/compiler/xla/service/service.cc:175]   StreamExecutor device (0): <undefined>, <undefined>
2022-02-17 21:41:50.682815: I tensorflow/core/platform/profile_utils/cpu_utils.cc:94] CPU Frequency: 2199885000 Hz
2022-02-17 21:41:50.682815: I tensorflow/core/platform/profile_utils/cpu_utils.cc:94] CPU Frequency: 2199885000 Hz
2022-02-17 21:41:50.682962: I tensorflow/core/platform/profile_utils/cpu_utils.cc:94] CPU Frequency: 2199885000 Hz
2022-02-17 21:41:50.683052: I tensorflow/compiler/xla/service/service.cc:168] XLA service 0x43c9d00 executing computations on platform Host. Devices:
2022-02-17 21:41:50.683077: I tensorflow/compiler/xla/service/service.cc:175]   StreamExecutor device (0): <undefined>, <undefined>
2022-02-17 21:41:50.683247: I tensorflow/compiler/xla/service/service.cc:168] XLA service 0x4869d00 executing computations on platform Host. Devices:
2022-02-17 21:41:50.683274: I tensorflow/compiler/xla/service/service.cc:175]   StreamExecutor device (0): <undefined>, <undefined>
2022-02-17 21:41:50.683251: I tensorflow/compiler/xla/service/service.cc:168] XLA service 0x39e6d00 executing computations on platform Host. Devices:
2022-02-17 21:41:50.683281: I tensorflow/compiler/xla/service/service.cc:175]   StreamExecutor device (0): <undefined>, <undefined>
2022-02-17 21:41:50.683431: I tensorflow/compiler/xla/service/service.cc:168] XLA service 0x464fd00 executing computations on platform Host. Devices:
2022-02-17 21:41:50.683456: I tensorflow/compiler/xla/service/service.cc:175]   StreamExecutor device (0): <undefined>, <undefined>
2022-02-17 21:41:50.683561: I tensorflow/compiler/xla/service/service.cc:168] XLA service 0x483ed00 executing computations on platform Host. Devices:
2022-02-17 21:41:50.683587: I tensorflow/compiler/xla/service/service.cc:175]   StreamExecutor device (0): <undefined>, <undefined>
2022-02-17 21:41:50.683856: I tensorflow/core/platform/profile_utils/cpu_utils.cc:94] CPU Frequency: 2199885000 Hz
2022-02-17 21:41:50.684061: I tensorflow/compiler/xla/service/service.cc:168] XLA service 0x4796d00 executing computations on platform Host. Devices:
2022-02-17 21:41:50.684086: I tensorflow/compiler/xla/service/service.cc:175]   StreamExecutor device (0): <undefined>, <undefined>
2022-02-17 21:41:50.684437: I tensorflow/core/platform/profile_utils/cpu_utils.cc:94] CPU Frequency: 2199885000 Hz
2022-02-17 21:41:50.685174: I tensorflow/core/platform/profile_utils/cpu_utils.cc:94] CPU Frequency: 2200065000 Hz
2022-02-17 21:41:50.685164: I tensorflow/core/platform/profile_utils/cpu_utils.cc:94] CPU Frequency: 2200065000 Hz
2022-02-17 21:41:50.685167: I tensorflow/core/platform/profile_utils/cpu_utils.cc:94] CPU Frequency: 2200065000 Hz
2022-02-17 21:41:50.685244: I tensorflow/core/platform/profile_utils/cpu_utils.cc:94] CPU Frequency: 2200065000 Hz
2022-02-17 21:41:50.685244: I tensorflow/core/platform/profile_utils/cpu_utils.cc:94] CPU Frequency: 2200065000 Hz
2022-02-17 21:41:50.685329: I tensorflow/compiler/xla/service/service.cc:168] XLA service 0x4c48950 executing computations on platform Host. Devices:
2022-02-17 21:41:50.685347: I tensorflow/compiler/xla/service/service.cc:175]   StreamExecutor device (0): <undefined>, <undefined>
2022-02-17 21:41:50.685329: I tensorflow/compiler/xla/service/service.cc:168] XLA service 0x387c890 executing computations on platform Host. Devices:
2022-02-17 21:41:50.685347: I tensorflow/compiler/xla/service/service.cc:175]   StreamExecutor device (0): <undefined>, <undefined>
2022-02-17 21:41:50.685329: I tensorflow/compiler/xla/service/service.cc:168] XLA service 0x467b940 executing computations on platform Host. Devices:
2022-02-17 21:41:50.685347: I tensorflow/compiler/xla/service/service.cc:175]   StreamExecutor device (0): <undefined>, <undefined>
2022-02-17 21:41:50.685392: I tensorflow/compiler/xla/service/service.cc:168] XLA service 0x4022940 executing computations on platform Host. Devices:
2022-02-17 21:41:50.685412: I tensorflow/compiler/xla/service/service.cc:175]   StreamExecutor device (0): <undefined>, <undefined>
2022-02-17 21:41:50.685391: I tensorflow/compiler/xla/service/service.cc:168] XLA service 0x5011940 executing computations on platform Host. Devices:
2022-02-17 21:41:50.685412: I tensorflow/compiler/xla/service/service.cc:175]   StreamExecutor device (0): <undefined>, <undefined>
2022-02-17 21:41:50.685413: I tensorflow/core/platform/profile_utils/cpu_utils.cc:94] CPU Frequency: 2200065000 Hz
2022-02-17 21:41:50.685530: I tensorflow/compiler/xla/service/service.cc:168] XLA service 0x4dcd940 executing computations on platform Host. Devices:
2022-02-17 21:41:50.685548: I tensorflow/compiler/xla/service/service.cc:175]   StreamExecutor device (0): <undefined>, <undefined>
2022-02-17 21:41:50.684967: I tensorflow/core/platform/profile_utils/cpu_utils.cc:94] CPU Frequency: 2199885000 Hz
2022-02-17 21:41:50.685615: I tensorflow/core/platform/profile_utils/cpu_utils.cc:94] CPU Frequency: 2200065000 Hz
2022-02-17 21:41:50.685652: I tensorflow/core/platform/profile_utils/cpu_utils.cc:94] CPU Frequency: 2200065000 Hz
2022-02-17 21:41:50.685166: I tensorflow/compiler/xla/service/service.cc:168] XLA service 0x3adad00 executing computations on platform Host. Devices:
2022-02-17 21:41:50.685193: I tensorflow/compiler/xla/service/service.cc:175]   StreamExecutor device (0): <undefined>, <undefined>
2022-02-17 21:41:50.685729: I tensorflow/compiler/xla/service/service.cc:168] XLA service 0x4494940 executing computations on platform Host. Devices:
2022-02-17 21:41:50.685747: I tensorflow/compiler/xla/service/service.cc:175]   StreamExecutor device (0): <undefined>, <undefined>
2022-02-17 21:41:50.685764: I tensorflow/compiler/xla/service/service.cc:168] XLA service 0x3296d90 executing computations on platform Host. Devices:
2022-02-17 21:41:50.685780: I tensorflow/compiler/xla/service/service.cc:175]   StreamExecutor device (0): <undefined>, <undefined>
2022-02-17 21:41:50.685206: I tensorflow/core/platform/profile_utils/cpu_utils.cc:94] CPU Frequency: 2199885000 Hz
2022-02-17 21:41:50.685815: I tensorflow/core/platform/profile_utils/cpu_utils.cc:94] CPU Frequency: 2200065000 Hz
2022-02-17 21:41:50.685856: I tensorflow/core/platform/profile_utils/cpu_utils.cc:94] CPU Frequency: 2200065000 Hz
2022-02-17 21:41:50.685400: I tensorflow/compiler/xla/service/service.cc:168] XLA service 0x3913d00 executing computations on platform Host. Devices:
2022-02-17 21:41:50.685424: I tensorflow/compiler/xla/service/service.cc:175]   StreamExecutor device (0): <undefined>, <undefined>
2022-02-17 21:41:50.685927: I tensorflow/compiler/xla/service/service.cc:168] XLA service 0x3dad940 executing computations on platform Host. Devices:
2022-02-17 21:41:50.685945: I tensorflow/compiler/xla/service/service.cc:175]   StreamExecutor device (0): <undefined>, <undefined>
2022-02-17 21:41:50.685973: I tensorflow/compiler/xla/service/service.cc:168] XLA service 0x41b5940 executing computations on platform Host. Devices:
2022-02-17 21:41:50.685991: I tensorflow/compiler/xla/service/service.cc:175]   StreamExecutor device (0): <undefined>, <undefined>
2022-02-17 21:41:50.685524: I tensorflow/core/platform/profile_utils/cpu_utils.cc:94] CPU Frequency: 2199885000 Hz
2022-02-17 21:41:50.685744: I tensorflow/compiler/xla/service/service.cc:168] XLA service 0x3740830 executing computations on platform Host. Devices:
2022-02-17 21:41:50.685768: I tensorflow/compiler/xla/service/service.cc:175]   StreamExecutor device (0): <undefined>, <undefined>
2022-02-17 21:41:50.685741: I tensorflow/compiler/xla/service/service.cc:168] XLA service 0x3501d00 executing computations on platform Host. Devices:
2022-02-17 21:41:50.685767: I tensorflow/compiler/xla/service/service.cc:175]   StreamExecutor device (0): <undefined>, <undefined>
2022-02-17 21:41:50.686345: I tensorflow/core/platform/profile_utils/cpu_utils.cc:94] CPU Frequency: 2200065000 Hz
2022-02-17 21:41:50.686491: I tensorflow/compiler/xla/service/service.cc:168] XLA service 0x45a1940 executing computations on platform Host. Devices:
2022-02-17 21:41:50.686511: I tensorflow/compiler/xla/service/service.cc:175]   StreamExecutor device (0): <undefined>, <undefined>
2022-02-17 21:41:50.686734: I tensorflow/core/platform/profile_utils/cpu_utils.cc:94] CPU Frequency: 2200065000 Hz
2022-02-17 21:41:50.686853: I tensorflow/compiler/xla/service/service.cc:168] XLA service 0x357e940 executing computations on platform Host. Devices:
2022-02-17 21:41:50.686871: I tensorflow/compiler/xla/service/service.cc:175]   StreamExecutor device (0): <undefined>, <undefined>
2022-02-17 21:41:50.687030: I tensorflow/core/platform/profile_utils/cpu_utils.cc:94] CPU Frequency: 2200065000 Hz
2022-02-17 21:41:50.687162: I tensorflow/compiler/xla/service/service.cc:168] XLA service 0x40cc950 executing computations on platform Host. Devices:
2022-02-17 21:41:50.687181: I tensorflow/compiler/xla/service/service.cc:175]   StreamExecutor device (0): <undefined>, <undefined>
2022-02-17 21:41:50.687437: I tensorflow/core/platform/profile_utils/cpu_utils.cc:94] CPU Frequency: 2200065000 Hz
2022-02-17 21:41:50.687561: I tensorflow/compiler/xla/service/service.cc:168] XLA service 0x4735860 executing computations on platform Host. Devices:
2022-02-17 21:41:50.687579: I tensorflow/compiler/xla/service/service.cc:175]   StreamExecutor device (0): <undefined>, <undefined>
2022-02-17 21:41:50.687669: I tensorflow/core/platform/profile_utils/cpu_utils.cc:94] CPU Frequency: 2200065000 Hz
2022-02-17 21:41:50.687769: I tensorflow/core/platform/profile_utils/cpu_utils.cc:94] CPU Frequency: 2200065000 Hz
2022-02-17 21:41:50.687781: I tensorflow/compiler/xla/service/service.cc:168] XLA service 0x5133890 executing computations on platform Host. Devices:
2022-02-17 21:41:50.687799: I tensorflow/compiler/xla/service/service.cc:175]   StreamExecutor device (0): <undefined>, <undefined>
2022-02-17 21:41:50.687884: I tensorflow/compiler/xla/service/service.cc:168] XLA service 0x3d74950 executing computations on platform Host. Devices:
2022-02-17 21:41:50.687903: I tensorflow/compiler/xla/service/service.cc:175]   StreamExecutor device (0): <undefined>, <undefined>
2022-02-17 21:41:50.688024: I tensorflow/core/platform/profile_utils/cpu_utils.cc:94] CPU Frequency: 2200065000 Hz
2022-02-17 21:41:50.688148: I tensorflow/compiler/xla/service/service.cc:168] XLA service 0x3d1d9a0 executing computations on platform Host. Devices:
2022-02-17 21:41:50.688167: I tensorflow/compiler/xla/service/service.cc:175]   StreamExecutor device (0): <undefined>, <undefined>
2022-02-17 21:41:50.688154: I tensorflow/core/platform/profile_utils/cpu_utils.cc:94] CPU Frequency: 2200065000 Hz
2022-02-17 21:41:50.688271: I tensorflow/compiler/xla/service/service.cc:168] XLA service 0x4d3e950 executing computations on platform Host. Devices:
2022-02-17 21:41:50.688290: I tensorflow/compiler/xla/service/service.cc:175]   StreamExecutor device (0): <undefined>, <undefined>
2022-02-17 21:41:50.688371: I tensorflow/core/platform/profile_utils/cpu_utils.cc:94] CPU Frequency: 2200065000 Hz
2022-02-17 21:41:50.688402: I tensorflow/core/platform/profile_utils/cpu_utils.cc:94] CPU Frequency: 2200065000 Hz
2022-02-17 21:41:50.688385: I tensorflow/core/platform/profile_utils/cpu_utils.cc:94] CPU Frequency: 2200065000 Hz
2022-02-17 21:41:50.688468: I tensorflow/core/platform/profile_utils/cpu_utils.cc:94] CPU Frequency: 2200065000 Hz
2022-02-17 21:41:50.688485: I tensorflow/compiler/xla/service/service.cc:168] XLA service 0x355d940 executing computations on platform Host. Devices:
2022-02-17 21:41:50.688504: I tensorflow/compiler/xla/service/service.cc:175]   StreamExecutor device (0): <undefined>, <undefined>
2022-02-17 21:41:50.688511: I tensorflow/compiler/xla/service/service.cc:168] XLA service 0x32cf940 executing computations on platform Host. Devices:
2022-02-17 21:41:50.688527: I tensorflow/compiler/xla/service/service.cc:175]   StreamExecutor device (0): <undefined>, <undefined>
2022-02-17 21:41:50.688496: I tensorflow/compiler/xla/service/service.cc:168] XLA service 0x492f950 executing computations on platform Host. Devices:
2022-02-17 21:41:50.688512: I tensorflow/compiler/xla/service/service.cc:175]   StreamExecutor device (0): <undefined>, <undefined>
2022-02-17 21:41:50.688602: I tensorflow/compiler/xla/service/service.cc:168] XLA service 0x4901950 executing computations on platform Host. Devices:
2022-02-17 21:41:50.688620: I tensorflow/compiler/xla/service/service.cc:175]   StreamExecutor device (0): <undefined>, <undefined>
2022-02-17 21:41:50.689360: I tensorflow/core/platform/profile_utils/cpu_utils.cc:94] CPU Frequency: 2200065000 Hz
2022-02-17 21:41:50.689480: I tensorflow/compiler/xla/service/service.cc:168] XLA service 0x3acc070 executing computations on platform Host. Devices:
2022-02-17 21:41:50.689499: I tensorflow/compiler/xla/service/service.cc:175]   StreamExecutor device (0): <undefined>, <undefined>
2022-02-17 21:41:50.690513: I tensorflow/core/platform/profile_utils/cpu_utils.cc:94] CPU Frequency: 2200065000 Hz
2022-02-17 21:41:50.690722: I tensorflow/compiler/xla/service/service.cc:168] XLA service 0x356f940 executing computations on platform Host. Devices:
2022-02-17 21:41:50.690742: I tensorflow/compiler/xla/service/service.cc:175]   StreamExecutor device (0): <undefined>, <undefined>
2022-02-17 21:41:50.848769: W tensorflow/compiler/jit/mark_for_compilation_pass.cc:1412] (One-time warning): Not using XLA:CPU for cluster because envvar TF_XLA_FLAGS=--tf_xla_cpu_global_jit was not set.  If you want XLA:CPU, either set that envvar, or use experimental_jit_scope to enable XLA:CPU.  To confirm that XLA is active, pass --vmodule=xla_compilation_cache=1 (as a proper command-line flag, not via TF_XLA_FLAGS) or set the envvar XLA_FLAGS=--xla_hlo_profile.
2022-02-17 21:41:50.849115: W tensorflow/compiler/jit/mark_for_compilation_pass.cc:1412] (One-time warning): Not using XLA:CPU for cluster because envvar TF_XLA_FLAGS=--tf_xla_cpu_global_jit was not set.  If you want XLA:CPU, either set that envvar, or use experimental_jit_scope to enable XLA:CPU.  To confirm that XLA is active, pass --vmodule=xla_compilation_cache=1 (as a proper command-line flag, not via TF_XLA_FLAGS) or set the envvar XLA_FLAGS=--xla_hlo_profile.
2022-02-17 21:41:50.849918: W tensorflow/compiler/jit/mark_for_compilation_pass.cc:1412] (One-time warning): Not using XLA:CPU for cluster because envvar TF_XLA_FLAGS=--tf_xla_cpu_global_jit was not set.  If you want XLA:CPU, either set that envvar, or use experimental_jit_scope to enable XLA:CPU.  To confirm that XLA is active, pass --vmodule=xla_compilation_cache=1 (as a proper command-line flag, not via TF_XLA_FLAGS) or set the envvar XLA_FLAGS=--xla_hlo_profile.
2022-02-17 21:41:50.850701: W tensorflow/compiler/jit/mark_for_compilation_pass.cc:1412] (One-time warning): Not using XLA:CPU for cluster because envvar TF_XLA_FLAGS=--tf_xla_cpu_global_jit was not set.  If you want XLA:CPU, either set that envvar, or use experimental_jit_scope to enable XLA:CPU.  To confirm that XLA is active, pass --vmodule=xla_compilation_cache=1 (as a proper command-line flag, not via TF_XLA_FLAGS) or set the envvar XLA_FLAGS=--xla_hlo_profile.
2022-02-17 21:41:50.850919: W tensorflow/compiler/jit/mark_for_compilation_pass.cc:1412] (One-time warning): Not using XLA:CPU for cluster because envvar TF_XLA_FLAGS=--tf_xla_cpu_global_jit was not set.  If you want XLA:CPU, either set that envvar, or use experimental_jit_scope to enable XLA:CPU.  To confirm that XLA is active, pass --vmodule=xla_compilation_cache=1 (as a proper command-line flag, not via TF_XLA_FLAGS) or set the envvar XLA_FLAGS=--xla_hlo_profile.
2022-02-17 21:41:50.850975: W tensorflow/compiler/jit/mark_for_compilation_pass.cc:1412] (One-time warning): Not using XLA:CPU for cluster because envvar TF_XLA_FLAGS=--tf_xla_cpu_global_jit was not set.  If you want XLA:CPU, either set that envvar, or use experimental_jit_scope to enable XLA:CPU.  To confirm that XLA is active, pass --vmodule=xla_compilation_cache=1 (as a proper command-line flag, not via TF_XLA_FLAGS) or set the envvar XLA_FLAGS=--xla_hlo_profile.
2022-02-17 21:41:50.851528: W tensorflow/compiler/jit/mark_for_compilation_pass.cc:1412] (One-time warning): Not using XLA:CPU for cluster because envvar TF_XLA_FLAGS=--tf_xla_cpu_global_jit was not set.  If you want XLA:CPU, either set that envvar, or use experimental_jit_scope to enable XLA:CPU.  To confirm that XLA is active, pass --vmodule=xla_compilation_cache=1 (as a proper command-line flag, not via TF_XLA_FLAGS) or set the envvar XLA_FLAGS=--xla_hlo_profile.
2022-02-17 21:41:50.852385: W tensorflow/compiler/jit/mark_for_compilation_pass.cc:1412] (One-time warning): Not using XLA:CPU for cluster because envvar TF_XLA_FLAGS=--tf_xla_cpu_global_jit was not set.  If you want XLA:CPU, either set that envvar, or use experimental_jit_scope to enable XLA:CPU.  To confirm that XLA is active, pass --vmodule=xla_compilation_cache=1 (as a proper command-line flag, not via TF_XLA_FLAGS) or set the envvar XLA_FLAGS=--xla_hlo_profile.
2022-02-17 21:41:50.852631: W tensorflow/compiler/jit/mark_for_compilation_pass.cc:1412] (One-time warning): Not using XLA:CPU for cluster because envvar TF_XLA_FLAGS=--tf_xla_cpu_global_jit was not set.  If you want XLA:CPU, either set that envvar, or use experimental_jit_scope to enable XLA:CPU.  To confirm that XLA is active, pass --vmodule=xla_compilation_cache=1 (as a proper command-line flag, not via TF_XLA_FLAGS) or set the envvar XLA_FLAGS=--xla_hlo_profile.
2022-02-17 21:41:50.852772: W tensorflow/compiler/jit/mark_for_compilation_pass.cc:1412] (One-time warning): Not using XLA:CPU for cluster because envvar TF_XLA_FLAGS=--tf_xla_cpu_global_jit was not set.  If you want XLA:CPU, either set that envvar, or use experimental_jit_scope to enable XLA:CPU.  To confirm that XLA is active, pass --vmodule=xla_compilation_cache=1 (as a proper command-line flag, not via TF_XLA_FLAGS) or set the envvar XLA_FLAGS=--xla_hlo_profile.
2022-02-17 21:41:50.853169: W tensorflow/compiler/jit/mark_for_compilation_pass.cc:1412] (One-time warning): Not using XLA:CPU for cluster because envvar TF_XLA_FLAGS=--tf_xla_cpu_global_jit was not set.  If you want XLA:CPU, either set that envvar, or use experimental_jit_scope to enable XLA:CPU.  To confirm that XLA is active, pass --vmodule=xla_compilation_cache=1 (as a proper command-line flag, not via TF_XLA_FLAGS) or set the envvar XLA_FLAGS=--xla_hlo_profile.
2022-02-17 21:41:50.853920: W tensorflow/compiler/jit/mark_for_compilation_pass.cc:1412] (One-time warning): Not using XLA:CPU for cluster because envvar TF_XLA_FLAGS=--tf_xla_cpu_global_jit was not set.  If you want XLA:CPU, either set that envvar, or use experimental_jit_scope to enable XLA:CPU.  To confirm that XLA is active, pass --vmodule=xla_compilation_cache=1 (as a proper command-line flag, not via TF_XLA_FLAGS) or set the envvar XLA_FLAGS=--xla_hlo_profile.
2022-02-17 21:41:50.866000: W tensorflow/compiler/jit/mark_for_compilation_pass.cc:1412] (One-time warning): Not using XLA:CPU for cluster because envvar TF_XLA_FLAGS=--tf_xla_cpu_global_jit was not set.  If you want XLA:CPU, either set that envvar, or use experimental_jit_scope to enable XLA:CPU.  To confirm that XLA is active, pass --vmodule=xla_compilation_cache=1 (as a proper command-line flag, not via TF_XLA_FLAGS) or set the envvar XLA_FLAGS=--xla_hlo_profile.
2022-02-17 21:41:50.866000: W tensorflow/compiler/jit/mark_for_compilation_pass.cc:1412] (One-time warning): Not using XLA:CPU for cluster because envvar TF_XLA_FLAGS=--tf_xla_cpu_global_jit was not set.  If you want XLA:CPU, either set that envvar, or use experimental_jit_scope to enable XLA:CPU.  To confirm that XLA is active, pass --vmodule=xla_compilation_cache=1 (as a proper command-line flag, not via TF_XLA_FLAGS) or set the envvar XLA_FLAGS=--xla_hlo_profile.
2022-02-17 21:41:50.867305: W tensorflow/compiler/jit/mark_for_compilation_pass.cc:1412] (One-time warning): Not using XLA:CPU for cluster because envvar TF_XLA_FLAGS=--tf_xla_cpu_global_jit was not set.  If you want XLA:CPU, either set that envvar, or use experimental_jit_scope to enable XLA:CPU.  To confirm that XLA is active, pass --vmodule=xla_compilation_cache=1 (as a proper command-line flag, not via TF_XLA_FLAGS) or set the envvar XLA_FLAGS=--xla_hlo_profile.
2022-02-17 21:41:50.867305: W tensorflow/compiler/jit/mark_for_compilation_pass.cc:1412] (One-time warning): Not using XLA:CPU for cluster because envvar TF_XLA_FLAGS=--tf_xla_cpu_global_jit was not set.  If you want XLA:CPU, either set that envvar, or use experimental_jit_scope to enable XLA:CPU.  To confirm that XLA is active, pass --vmodule=xla_compilation_cache=1 (as a proper command-line flag, not via TF_XLA_FLAGS) or set the envvar XLA_FLAGS=--xla_hlo_profile.
2022-02-17 21:41:50.867330: W tensorflow/compiler/jit/mark_for_compilation_pass.cc:1412] (One-time warning): Not using XLA:CPU for cluster because envvar TF_XLA_FLAGS=--tf_xla_cpu_global_jit was not set.  If you want XLA:CPU, either set that envvar, or use experimental_jit_scope to enable XLA:CPU.  To confirm that XLA is active, pass --vmodule=xla_compilation_cache=1 (as a proper command-line flag, not via TF_XLA_FLAGS) or set the envvar XLA_FLAGS=--xla_hlo_profile.
2022-02-17 21:41:50.867962: W tensorflow/compiler/jit/mark_for_compilation_pass.cc:1412] (One-time warning): Not using XLA:CPU for cluster because envvar TF_XLA_FLAGS=--tf_xla_cpu_global_jit was not set.  If you want XLA:CPU, either set that envvar, or use experimental_jit_scope to enable XLA:CPU.  To confirm that XLA is active, pass --vmodule=xla_compilation_cache=1 (as a proper command-line flag, not via TF_XLA_FLAGS) or set the envvar XLA_FLAGS=--xla_hlo_profile.
2022-02-17 21:41:50.868516: W tensorflow/compiler/jit/mark_for_compilation_pass.cc:1412] (One-time warning): Not using XLA:CPU for cluster because envvar TF_XLA_FLAGS=--tf_xla_cpu_global_jit was not set.  If you want XLA:CPU, either set that envvar, or use experimental_jit_scope to enable XLA:CPU.  To confirm that XLA is active, pass --vmodule=xla_compilation_cache=1 (as a proper command-line flag, not via TF_XLA_FLAGS) or set the envvar XLA_FLAGS=--xla_hlo_profile.
2022-02-17 21:41:50.869194: W tensorflow/compiler/jit/mark_for_compilation_pass.cc:1412] (One-time warning): Not using XLA:CPU for cluster because envvar TF_XLA_FLAGS=--tf_xla_cpu_global_jit was not set.  If you want XLA:CPU, either set that envvar, or use experimental_jit_scope to enable XLA:CPU.  To confirm that XLA is active, pass --vmodule=xla_compilation_cache=1 (as a proper command-line flag, not via TF_XLA_FLAGS) or set the envvar XLA_FLAGS=--xla_hlo_profile.
2022-02-17 21:41:50.869258: W tensorflow/compiler/jit/mark_for_compilation_pass.cc:1412] (One-time warning): Not using XLA:CPU for cluster because envvar TF_XLA_FLAGS=--tf_xla_cpu_global_jit was not set.  If you want XLA:CPU, either set that envvar, or use experimental_jit_scope to enable XLA:CPU.  To confirm that XLA is active, pass --vmodule=xla_compilation_cache=1 (as a proper command-line flag, not via TF_XLA_FLAGS) or set the envvar XLA_FLAGS=--xla_hlo_profile.
2022-02-17 21:41:50.869355: W tensorflow/compiler/jit/mark_for_compilation_pass.cc:1412] (One-time warning): Not using XLA:CPU for cluster because envvar TF_XLA_FLAGS=--tf_xla_cpu_global_jit was not set.  If you want XLA:CPU, either set that envvar, or use experimental_jit_scope to enable XLA:CPU.  To confirm that XLA is active, pass --vmodule=xla_compilation_cache=1 (as a proper command-line flag, not via TF_XLA_FLAGS) or set the envvar XLA_FLAGS=--xla_hlo_profile.
2022-02-17 21:41:50.870072: W tensorflow/compiler/jit/mark_for_compilation_pass.cc:1412] (One-time warning): Not using XLA:CPU for cluster because envvar TF_XLA_FLAGS=--tf_xla_cpu_global_jit was not set.  If you want XLA:CPU, either set that envvar, or use experimental_jit_scope to enable XLA:CPU.  To confirm that XLA is active, pass --vmodule=xla_compilation_cache=1 (as a proper command-line flag, not via TF_XLA_FLAGS) or set the envvar XLA_FLAGS=--xla_hlo_profile.
2022-02-17 21:41:50.870227: W tensorflow/compiler/jit/mark_for_compilation_pass.cc:1412] (One-time warning): Not using XLA:CPU for cluster because envvar TF_XLA_FLAGS=--tf_xla_cpu_global_jit was not set.  If you want XLA:CPU, either set that envvar, or use experimental_jit_scope to enable XLA:CPU.  To confirm that XLA is active, pass --vmodule=xla_compilation_cache=1 (as a proper command-line flag, not via TF_XLA_FLAGS) or set the envvar XLA_FLAGS=--xla_hlo_profile.
2022-02-17 21:41:50.870227: W tensorflow/compiler/jit/mark_for_compilation_pass.cc:1412] (One-time warning): Not using XLA:CPU for cluster because envvar TF_XLA_FLAGS=--tf_xla_cpu_global_jit was not set.  If you want XLA:CPU, either set that envvar, or use experimental_jit_scope to enable XLA:CPU.  To confirm that XLA is active, pass --vmodule=xla_compilation_cache=1 (as a proper command-line flag, not via TF_XLA_FLAGS) or set the envvar XLA_FLAGS=--xla_hlo_profile.
2022-02-17 21:41:50.870378: W tensorflow/compiler/jit/mark_for_compilation_pass.cc:1412] (One-time warning): Not using XLA:CPU for cluster because envvar TF_XLA_FLAGS=--tf_xla_cpu_global_jit was not set.  If you want XLA:CPU, either set that envvar, or use experimental_jit_scope to enable XLA:CPU.  To confirm that XLA is active, pass --vmodule=xla_compilation_cache=1 (as a proper command-line flag, not via TF_XLA_FLAGS) or set the envvar XLA_FLAGS=--xla_hlo_profile.
2022-02-17 21:41:50.871058: W tensorflow/compiler/jit/mark_for_compilation_pass.cc:1412] (One-time warning): Not using XLA:CPU for cluster because envvar TF_XLA_FLAGS=--tf_xla_cpu_global_jit was not set.  If you want XLA:CPU, either set that envvar, or use experimental_jit_scope to enable XLA:CPU.  To confirm that XLA is active, pass --vmodule=xla_compilation_cache=1 (as a proper command-line flag, not via TF_XLA_FLAGS) or set the envvar XLA_FLAGS=--xla_hlo_profile.
2022-02-17 21:41:50.871735: W tensorflow/compiler/jit/mark_for_compilation_pass.cc:1412] (One-time warning): Not using XLA:CPU for cluster because envvar TF_XLA_FLAGS=--tf_xla_cpu_global_jit was not set.  If you want XLA:CPU, either set that envvar, or use experimental_jit_scope to enable XLA:CPU.  To confirm that XLA is active, pass --vmodule=xla_compilation_cache=1 (as a proper command-line flag, not via TF_XLA_FLAGS) or set the envvar XLA_FLAGS=--xla_hlo_profile.
2022-02-17 21:41:50.871704: W tensorflow/compiler/jit/mark_for_compilation_pass.cc:1412] (One-time warning): Not using XLA:CPU for cluster because envvar TF_XLA_FLAGS=--tf_xla_cpu_global_jit was not set.  If you want XLA:CPU, either set that envvar, or use experimental_jit_scope to enable XLA:CPU.  To confirm that XLA is active, pass --vmodule=xla_compilation_cache=1 (as a proper command-line flag, not via TF_XLA_FLAGS) or set the envvar XLA_FLAGS=--xla_hlo_profile.
2022-02-17 21:41:50.872252: W tensorflow/compiler/jit/mark_for_compilation_pass.cc:1412] (One-time warning): Not using XLA:CPU for cluster because envvar TF_XLA_FLAGS=--tf_xla_cpu_global_jit was not set.  If you want XLA:CPU, either set that envvar, or use experimental_jit_scope to enable XLA:CPU.  To confirm that XLA is active, pass --vmodule=xla_compilation_cache=1 (as a proper command-line flag, not via TF_XLA_FLAGS) or set the envvar XLA_FLAGS=--xla_hlo_profile.
2022-02-17 21:41:50.874243: W tensorflow/compiler/jit/mark_for_compilation_pass.cc:1412] (One-time warning): Not using XLA:CPU for cluster because envvar TF_XLA_FLAGS=--tf_xla_cpu_global_jit was not set.  If you want XLA:CPU, either set that envvar, or use experimental_jit_scope to enable XLA:CPU.  To confirm that XLA is active, pass --vmodule=xla_compilation_cache=1 (as a proper command-line flag, not via TF_XLA_FLAGS) or set the envvar XLA_FLAGS=--xla_hlo_profile.
2022-02-17 21:41:50.874408: W tensorflow/compiler/jit/mark_for_compilation_pass.cc:1412] (One-time warning): Not using XLA:CPU for cluster because envvar TF_XLA_FLAGS=--tf_xla_cpu_global_jit was not set.  If you want XLA:CPU, either set that envvar, or use experimental_jit_scope to enable XLA:CPU.  To confirm that XLA is active, pass --vmodule=xla_compilation_cache=1 (as a proper command-line flag, not via TF_XLA_FLAGS) or set the envvar XLA_FLAGS=--xla_hlo_profile.
2022-02-17 21:41:50.875330: W tensorflow/compiler/jit/mark_for_compilation_pass.cc:1412] (One-time warning): Not using XLA:CPU for cluster because envvar TF_XLA_FLAGS=--tf_xla_cpu_global_jit was not set.  If you want XLA:CPU, either set that envvar, or use experimental_jit_scope to enable XLA:CPU.  To confirm that XLA is active, pass --vmodule=xla_compilation_cache=1 (as a proper command-line flag, not via TF_XLA_FLAGS) or set the envvar XLA_FLAGS=--xla_hlo_profile.
2022-02-17 21:41:50.875509: W tensorflow/compiler/jit/mark_for_compilation_pass.cc:1412] (One-time warning): Not using XLA:CPU for cluster because envvar TF_XLA_FLAGS=--tf_xla_cpu_global_jit was not set.  If you want XLA:CPU, either set that envvar, or use experimental_jit_scope to enable XLA:CPU.  To confirm that XLA is active, pass --vmodule=xla_compilation_cache=1 (as a proper command-line flag, not via TF_XLA_FLAGS) or set the envvar XLA_FLAGS=--xla_hlo_profile.
2022-02-17 21:41:50.875649: W tensorflow/compiler/jit/mark_for_compilation_pass.cc:1412] (One-time warning): Not using XLA:CPU for cluster because envvar TF_XLA_FLAGS=--tf_xla_cpu_global_jit was not set.  If you want XLA:CPU, either set that envvar, or use experimental_jit_scope to enable XLA:CPU.  To confirm that XLA is active, pass --vmodule=xla_compilation_cache=1 (as a proper command-line flag, not via TF_XLA_FLAGS) or set the envvar XLA_FLAGS=--xla_hlo_profile.
2022-02-17 21:41:50.877130: W tensorflow/compiler/jit/mark_for_compilation_pass.cc:1412] (One-time warning): Not using XLA:CPU for cluster because envvar TF_XLA_FLAGS=--tf_xla_cpu_global_jit was not set.  If you want XLA:CPU, either set that envvar, or use experimental_jit_scope to enable XLA:CPU.  To confirm that XLA is active, pass --vmodule=xla_compilation_cache=1 (as a proper command-line flag, not via TF_XLA_FLAGS) or set the envvar XLA_FLAGS=--xla_hlo_profile.
  >>> Info of model(s):
  using   1 model(s): /u/project/ESS/lstixrud/jd848/pv_hf_copy/pvh/m12/v3/pv.pb 
  rcut in model:      6
  ntypes in model:    4
  using fparam(s):    0.349002  
Neighbor list info ...
  update every 10 steps, delay 0 steps, check no
  max neighbors/atom: 2000, page size: 100000
  master list distance cutoff = 8
  ghost atom cutoff = 8
  binsize = 4, bins = 3 3 3
  1 neighbor lists, perpetual/occasional/extra = 1 0 0
  (1) pair deepmd, perpetual
      attributes: , newton on
      pair build: full/bin/atomonly
      stencil: full/bin/3d
      bin: standard
Setting up Verlet run ...
  Unit style    : metal
  Current step  : 0
  Time step     : 0.001
Per MPI rank memory allocation (min/avg/max) = 2.485 | 2.485 | 2.485 Mbytes
Step Temp E_pair E_mol TotEng Press Volume 
       0          100   -1079.6816            0   -1077.6263    194435.27    1524.5636 
     200    35.789432   -1119.2728            0   -1118.5372    401323.69     1286.727 
Loop time of 5.4219 on 36 procs for 200 steps with 160 atoms

Performance: 3.187 ns/day, 7.530 hours/ns, 36.887 timesteps/s
113.5% CPU use with 36 MPI tasks x no OpenMP threads

MPI task timing breakdown:
Section |  min time  |  avg time  |  max time  |%varavg| %total
---------------------------------------------------------------
Pair    | 2.1532     | 3.5773     | 4.8371     |  40.1 | 65.98
Neigh   | 0.00075841 | 0.0010814  | 0.0015247  |   0.5 |  0.02
Comm    | 0.56969    | 1.8296     | 3.2541     |  56.0 | 33.74
Output  | 5.6028e-05 | 5.7552e-05 | 7.6056e-05 |   0.0 |  0.00
Modify  | 0.012079   | 0.013149   | 0.015276   |   0.6 |  0.24
Other   |            | 0.0007477  |            |       |  0.01

Nlocal:        4.44444 ave           7 max           3 min
Histogram: 9 0 9 0 0 14 0 1 0 3
Nghost:        893.333 ave         911 max         877 min
Histogram: 1 3 4 5 6 8 2 4 1 2
Neighs:        0.00000 ave           0 max           0 min
Histogram: 36 0 0 0 0 0 0 0 0 0

Total # of neighbors = 0
Ave neighs/atom = 0.0000000
Neighbor list builds = 20
Dangerous builds not checked
Setting up Verlet run ...
  Unit style    : metal
  Current step  : 200
  Time step     : 0.001
Per MPI rank memory allocation (min/avg/max) = 2.486 | 2.486 | 2.486 Mbytes
Step PotEng KinEng TotEng Temp Press Volume Pxx Pyy Pzz Pxy Pyz Pxz 
     200   -1119.2728     83.23707   -1036.0357         4050    469808.55     1286.727    497642.59     418570.6    493212.47    14588.174    5169.0974   -36208.728 
     210   -1068.5772    32.779374   -1035.7979      1594.92     512747.1    1288.2101    536774.92    455333.82    546132.55    6053.1539   -20491.493   -29399.466 
     220   -1073.1162    38.319489   -1034.7967    1864.4809    484087.76    1293.1799    518703.79    450079.49    483480.01    2659.5576    6987.7388   -23897.545 
     230   -1075.0161     41.18396   -1033.8321    2003.8552    465608.05    1301.1718    504931.03    425872.25    466020.87    35189.254    25595.462   -12334.495 
     240    -1076.229    42.668525   -1033.5605    2076.0885    435001.89     1311.534    457614.25     382020.9    465370.51    46919.374    20077.253   -5628.0357 
     250   -1081.7144    48.853771   -1032.8606    2377.0391    399991.97    1323.1334    448184.54    326722.85    425068.51    41870.214    28618.152   -25378.909 
     260   -1081.3209    50.100893     -1031.22    2437.7193    391623.44    1334.8944    455524.37    328236.84     391109.1    6216.9394    23688.515   -35915.831 
     270   -1083.0396    53.997168   -1029.0425    2627.2973    376249.07    1346.2513    448016.36    325513.87    355216.96    21962.436    11416.648   -20257.456 
     280   -1080.3004    53.857279   -1026.4431    2620.4908    358938.08    1356.6544    444192.66    317830.33    314791.26    30822.577     3817.404   -24393.946 
     290    -1081.751    58.786389   -1022.9646    2860.3226    354864.54    1365.4148    442611.31    313240.49    308741.83    2156.6971   -8473.1877   -16623.606 
     300    -1080.811    61.816662   -1018.9943    3007.7642    358991.52    1372.3455    403420.16    335539.44    338014.97   -13769.587   -310.46982   -43486.186 
     310   -1074.2217    59.574313   -1014.6474      2898.66    358542.36    1377.6033    372960.95       326247    376419.13    10689.345   -12728.061   -41549.012 
     320   -1076.8498    67.118244   -1009.7315    3265.7191     340113.9    1381.0831    343610.75    331659.37    345071.58    4064.7025   -14871.377   -43554.969 
     330   -1071.3213    67.318484   -1004.0028     3275.462    331529.93    1382.1698    347979.45    339662.92    306947.42   -1129.4789    -39633.41   -43158.632 
     340   -1067.6541    69.585262   -998.06886    3385.7548    354655.94    1380.6607    365098.51    346256.65    352612.67    24710.849   -41257.557   -38189.977 
     350   -1061.5331    69.848456   -991.68468    3398.5608    384325.89    1377.5144    379529.68    407386.67    366061.31    32238.821    4605.7619   -44128.253 
     360   -1064.4065    79.574279   -984.83222    3871.7825    381334.41    1373.6739    394572.52    340905.56    408525.15    21068.254   -31606.222   -23510.775 
     370   -1054.6196    76.222281   -978.39728     3708.687    396921.79    1369.3191    448794.06    380964.57    361006.73    43611.566   -38940.173      3551.77 
     380   -1053.8532    81.687664   -972.16551    3974.6118    381237.56    1364.7022    427972.73     358010.9    357729.05    35290.554   -23555.751    3781.9687 
     390    -1038.907    72.633146    -966.2739    3534.0533    438944.87    1359.8047    474887.88    393506.95    448439.78    13895.773   -21959.462   -19110.008 
     400   -1044.8718    84.459498   -960.41234    4109.4787    424801.73    1356.1627    464886.85    353460.56    456057.77    3320.2712   -45260.761   -47030.772 
     410   -1041.5872    86.549183   -955.03798    4211.1549    437925.18    1353.7556    470309.96    406889.85    436575.72    16666.276   -59738.452   -44107.877 
     420   -1042.3289    91.452482   -950.87641    4449.7307    462322.29    1352.8344    471889.94    459037.47    456039.46   -221.49166   -43220.621   -25935.809 
     430   -1039.8027    91.211259   -948.59143    4437.9938    482721.68    1354.3189     530590.2     424415.2    493159.64    7807.4206   -35777.011   -1786.5533 
     440   -1036.0794    87.802411   -948.27695    4272.1322    470133.97     1358.832    553335.94     371659.9    485406.05   -6576.4852    17202.696   -15584.587 
     450   -1039.4332    89.955463   -949.47774    4376.8915    451555.91    1365.9347    504467.67    418119.62    432080.44    7174.3114    10986.126    10880.346 
     460   -1033.3203    81.554877   -951.76538    3968.1508    450714.38    1375.1024    511223.67    409452.73    431466.75    11231.267    30626.784    25650.539 
     470   -1035.2263    80.882703   -954.34359    3935.4454    401013.56    1385.9027    443810.41     419969.7    339260.56   -26367.454    30632.541     14139.67 
     480   -1044.4293    87.994261   -956.43504    4281.4668    343108.02    1396.4698     362084.2    353166.16    314073.69   -13382.701    10883.042   -6038.0957 
     490   -1047.4763    88.946376   -958.52988    4327.7932    366773.48    1404.8635    355743.02     393187.2     351390.2    17614.493   -12298.364   -12622.411 
     500   -1045.3527    84.302886   -961.04981    4101.8585    366800.98    1411.5968    382968.88    341937.93    375496.14    44666.134    17868.168   -665.81865 
     510     -1046.93    83.749868   -963.18016    4074.9508    341572.32    1416.8206    385938.46    317846.53    320931.97    894.68383    20871.531   -16189.907 
     520   -1041.9051    77.251059   -964.65403    3758.7434    373699.92    1419.7854    429296.01    368187.26    323616.51    21967.121   -6502.7135   -24264.388 
     530   -1052.6214    87.045273   -965.57617    4235.2927    367065.14    1421.3156    401633.84    353246.56    346315.01    5283.9804   -15482.391   -22059.607 
     540   -1057.2705    90.757301   -966.51323    4415.9059    346802.59    1421.5266    380267.93    322040.98    338098.84   -32856.006   -4354.4615   -24632.322 
     550   -1054.3142     86.44687   -967.86732    4206.1767    323756.72     1419.567    339891.33    292712.35    338666.48     19715.38   -41585.447   -19202.604 
     560   -1051.2314    82.306551   -968.92487    4004.7244    332351.57    1414.6761    349131.64    309329.37    338593.71    54927.959   -46331.463   -31495.921 
     570   -1045.5849    76.600357   -968.98458    3727.0827    397808.18    1407.5033    410629.07    389104.03    393691.43    47019.611   -25722.629   -25211.076 
     580   -1053.4549    85.043631   -968.41127    4137.9004    380788.01    1400.0721    440598.64    306145.79    395619.61    3678.2972   -36552.746   -14981.374 
     590   -1042.5657    74.956597   -967.60913    3647.1036    370350.39    1392.2666    424621.77    313500.42    372928.98   -45176.257   -29192.931   -25132.239 
     600   -1045.2184    79.329071   -965.88931    3859.8516    371905.79    1383.6386    371247.23     368325.6    376144.54    7791.5234   -3622.2924   -16263.778 
     610   -1043.0902    79.756671   -963.33358     3880.657    404141.14    1374.3802    429406.77    369327.85    413688.79    21274.048      9711.55   -35882.509 
     620   -1038.4186    78.064925   -960.35365     3798.343    432387.75    1365.5982    471915.78    395542.17    429705.29    34683.331   -12948.373    1468.8195 
     630   -1046.8104    89.582991   -957.22744    4358.7684    452970.61    1358.3851    503375.42    439447.16    416089.24    30292.041   -20549.474    41361.155 
     640   -1036.8757    81.905625   -954.97007    3985.2169    470517.87    1353.5332    539861.75    408160.16    463531.71    11348.946   -19284.127     10926.82 
     650   -1030.2146    76.766759   -953.44785    3735.1792    479697.33    1351.5183    519590.24    458252.53    461249.22   -46991.474   -30430.911   -11840.301 
     660   -1041.1399    88.754995   -952.38486    4318.4813    448066.92    1352.2783     508483.4    455979.47    379737.87    2789.2365    14212.763    6698.9874 
     670    -1036.914    84.752635   -952.16137    4123.7416    443969.78    1354.9748    457790.58    448464.97    425653.79    9183.1628    22888.139   -32003.826 
     680   -1041.4092    88.825441   -952.58374    4321.9089    451410.41     1359.281    445163.08    395094.39    513973.77   -19858.656   -10379.775   -12352.105 
     690    -1045.044      90.8597   -954.18433    4420.8883    429558.62    1365.3286    462671.87    366591.69    459412.31   -12187.306   -27080.248     12587.38 
     700   -1045.4497     88.81715   -956.63258    4321.5055    380334.91    1372.2384    365289.63     383105.2    392609.91    19362.355   -31149.364     17439.35 
     710   -1045.7919    86.041634   -959.75026    4186.4594    382419.31    1378.2971    345704.68    406227.23    395326.01    33599.671    7360.9769    21418.408 
     720   -1045.1415    82.014631   -963.12691    3990.5207    393739.42    1383.4031    360996.71    403260.52    416961.03    19877.581    25391.117    16850.842 
     730   -1048.8084     82.48213    -966.3263    4013.2675    390835.35    1387.9784    400129.62    399062.16    373314.27    6892.4009   -26378.908    11936.392 
     740   -1044.1216    75.047257    -969.0743    3651.5148    399280.51    1392.0893    421561.86    393793.84    382485.82   -11771.236    -10772.61     26433.48 
     750   -1052.8479    81.785921     -971.062    3979.3926    384363.51    1395.9036    424072.78    348812.17    380205.59   -20647.322    16907.202    2013.5681 
     760   -1051.5383    79.019699   -972.51857    3844.7987    399840.94     1399.168    462626.92     365475.6     371420.3   -19686.907    1434.2406    9178.3841 
     770   -1056.8586    83.236434   -973.62212     4049.969     385338.1    1402.1413    419320.04    370702.51    365991.75   -22866.768   -26598.971   -12586.419 
     780    -1061.529    86.861937   -974.66702    4226.3723    375339.32     1404.426    412167.15    319869.66    393981.15   -26700.609    40297.479    40448.134 
     790   -1052.0695    76.402433   -975.66712    3717.4525     382013.5    1405.7522    419275.17    326855.05    399910.27   -60001.315    33855.035    37784.711 
     800   -1058.9134    82.804047   -976.10937    4028.9307    368579.57    1406.0979    399230.19    333497.59    373010.93   -50801.102    11606.926    54626.792 
     810    -1055.813    79.782584   -976.03041    3881.9178    369614.75    1405.2713    391702.52    326715.95    390425.79   -19686.083    12927.839    60053.286 
     820   -1051.6943    76.495297   -975.19902    3721.9709    358825.87    1403.2015    379184.34    327025.04    370268.23   -19130.923   -6822.0727     43538.93 
     830   -1049.5127    76.368463    -973.1442    3715.7996    375349.19     1399.629    358963.55    388371.27    378712.75   -43773.569   -15986.994    22514.341 
     840   -1039.8569    70.152566   -969.70433    3413.3577    412776.79    1395.2856    394188.54    406481.44     437660.4   -18185.701   -41175.226    65163.752 
     850   -1049.3992    84.543577   -964.85561    4113.5697    406999.78    1391.4362    416996.68    381924.25    422078.41    -21231.08   -28821.741    26635.213 
     860   -1042.4835    82.612157   -959.87138    4019.5941     403942.1    1388.1347     418717.1    432225.82    360883.38   -3274.5789   -26129.387    5485.0635 
     870   -1039.5789    83.353894   -956.22499    4055.6842    408238.31    1385.0725     416002.3    437469.81    371242.82   -20145.827   -6545.8545   -11875.715 
     880   -1046.5129    92.794145   -953.71874     4515.011    421902.12      1382.44    402686.77    464433.99    398585.61   -61330.255   -17050.569   -3026.0511 
     890   -1042.5385    89.719483   -952.81901    4365.4096    419692.34    1380.6989    375945.38    456689.81    426441.84   -25065.594   -29297.206    -12312.59 
     900    -1045.574    92.412164   -953.16183    4496.4252    383428.64    1379.6255    339913.93    422611.93    387760.07   -17940.463   -55217.207    13495.984 
     910   -1038.2765    83.981525   -954.29496    4086.2223    397055.15    1378.1989    369628.06       443647    377890.39   -32055.887   -44441.806   -12492.536 
     920   -1038.7279    83.271599    -955.4563      4051.68       390317    1376.5777    365558.52    454532.09    350860.38   -31027.849   -46804.567   -2500.2132 
     930   -1046.8168    90.090807     -956.726    4383.4768    378076.59    1374.6318    353130.88    409001.62    372097.28   -24036.316   -25610.757    2699.3223 
     940   -1038.8208    80.536935    -958.2839    3918.6217    392211.71    1372.0564    366716.38    399211.93    410706.81   -36573.994   -23149.207     6987.085 
     950   -1041.8578    82.448558   -959.40924     4011.634    398775.61    1369.2597       389294    446126.71    360906.13   -18008.869   -12624.295    8476.5177 
     960   -1043.5163    83.179518   -960.33683    4047.1997    386098.19    1366.4704    392024.84     473606.6    292663.12    5262.2374   -9921.5333    27885.725 
     970   -1037.9662    76.991554   -960.97463    3746.1169    398730.09    1363.3397    439546.59    445682.57     310961.1     12023.08   -21786.526    11656.419 
     980   -1043.2183    82.167632   -961.05067    3997.9652    417839.36    1360.2637    492017.49    392710.74    368789.85   -52057.132   -2717.5068   -29202.206 
     990   -1040.3826    79.231019   -961.15156    3855.0807    461972.12    1358.0525    498540.31    498533.49    388842.56    -47362.17   -18388.337   -36561.867 
    1000   -1044.4375    82.954685   -961.48285    4036.2602    418657.29    1357.8544    441016.06    468053.43    346902.38    -30128.33   -39656.908   -8039.7599 
    1010   -1036.8699    75.148541   -961.72137    3656.4429    396952.73    1358.5256    424646.69     420475.2    345736.31   -28076.418   -30882.252   -8659.3791 
    1020   -1042.7704    81.499372   -961.27099    3965.4502    406562.78    1359.1143    448899.47    412951.93    357836.93   -16984.785   -31564.802   -11453.561 
    1030    -1047.721    87.719688   -960.00136    4268.1072    401238.72    1359.8684    427686.18    431802.04    344227.95    29019.151   -55923.215   -24271.863 
    1040   -1041.6837    83.644724   -958.03894    4069.8349    422426.33    1360.8284    416074.62    453539.74    397664.63    4339.5472   -24343.176    34.964363 
    1050   -1042.9187    87.610959   -955.30773    4262.8168    426263.04    1362.6016    387163.82    446725.53    444899.78   -21071.442   -54167.132    20790.621 
    1060   -1039.9411    87.411641    -952.5295    4253.1188    422183.28     1365.385    361142.54    485738.35    419668.93    14391.446   -68397.122    23004.545 
    1070   -1034.7423    84.203951   -950.53834    4097.0447    406414.42    1368.9636    423076.08    429914.46    366252.72    5368.4838   -30653.555    27831.404 
    1080    -1036.348     87.40256   -948.94541    4252.6769    414250.89    1372.8479    461453.96    395189.72    386109.01   -10367.204    445.49088    17888.797 
    1090   -1043.1163    94.786779   -948.32948     4611.965    425994.27    1377.2424    431206.92     414869.4    431906.49   -31827.552   -21672.993    27355.978 
    1100   -1035.4818    86.218823   -949.26301    4195.0808    408058.63    1382.5577    441909.48    408951.74    373314.67    2056.8751   -24903.111    17522.967 
    1110     -1039.35    88.449452   -950.90057    4303.6147    343689.62     1387.838    363384.18     318380.3    349304.38   -8457.5545   -2039.9219    10211.871 
    1120   -1041.5579    88.835073   -952.72279    4322.3776     348521.5    1391.1568    358047.31    308324.71    379192.49   -13145.124   -2191.3007   -23958.559 
    1130   -1038.9625    84.291256   -954.67127    4101.2927    392443.59    1392.7045    434614.21    342411.07     400305.5   -12640.029   -12161.675   -14976.535 
    1140   -1039.7823      82.7777   -957.00461    4027.6488    397472.56     1393.796    454683.92    332519.52    405214.23    46.427218   -34797.552   -15839.089 
    1150   -1040.9398    81.453669   -959.48614    3963.2265    368274.32    1394.5834    412280.22    336342.55     356200.2   -32899.816   -5712.9342    -20407.29 
    1160   -1046.7078    84.841839   -961.86599     4128.082    369620.61    1394.1573    390077.65    367401.23    351382.96   -35639.127   -25789.505   -13373.342 
    1170   -1048.0448    83.736927   -964.30784    4074.3212    395478.27    1392.5893    365379.86     385919.9    435135.04   -35254.581    1688.1392     5719.694 
    1180   -1046.6124    79.766008   -966.84642    3881.1113    410185.51    1390.7355    426096.87    389765.02    414694.64   -38643.529    32191.134   -24840.914 
    1190   -1047.2579    78.686882   -968.57098    3828.6051    406913.96    1389.2226    456625.77    373782.69    390333.43   -29501.527    6686.0157   -28961.422 
    1200   -1053.9886    84.291968   -969.69662    4101.3273     369993.9    1387.9252    405593.35    329825.26    374563.08   -28523.889    6150.6993    11534.084 
    1210   -1048.8026    78.507449   -970.29516    3819.8746    364746.24     1385.559    423814.47    353442.96    316981.28   -11495.152   -20926.162    2144.7234 
    1220   -1051.0911    81.064569   -970.02653    3944.2943    360273.16    1381.7675    378344.28    374181.01    328294.18   -29271.057    24576.225   -13234.756 
    1230   -1040.3718    71.644742   -968.72706    3485.9613    389116.46    1376.6789    433694.49    381633.84    352021.04   -13834.268    14407.465   -18573.198 
    1240   -1044.2156    77.725375   -966.49023    3781.8218    404008.02    1371.0665    433818.11    385306.98    392898.97   -15964.549   -1025.9363    11371.141 
    1250    -1044.639    80.611405   -964.02762    3922.2451    404361.94    1365.5412    401412.62    375738.98    435934.21   -38476.337    11320.038    5853.4337 
    1260     -1046.38    84.716343   -961.66361    4121.9758    417336.92    1360.3575    438685.49    357334.84    455990.41   -52383.565    20201.165    -6767.816 
    1270   -1043.2537    83.384601   -959.86915    4057.1783    422019.43    1355.8669     439018.6    391922.42    435117.26   -25393.347    35212.282   -13343.256 
    1280   -1036.7571    78.320591   -958.43651    3810.7828    444106.08    1352.3578    456869.52    409595.03     465853.7   -12143.588     36098.72   -13251.256 
    1290   -1038.7902    81.642711   -957.14751    3972.4245    473364.63    1350.5714    495817.63    466313.73    457962.54    -27283.73    51428.679    26021.553 
    1300   -1043.6989    87.004421   -956.69452     4233.305    460741.33    1351.3657    504023.57    395539.75    482660.66    -25169.34     40334.12   -26834.193 
    1310   -1039.6429     82.44973   -957.19317     4011.691    427811.05     1354.462    503328.77    358670.32    421434.07   -22293.282    40159.498   -12413.688 
    1320   -1033.4422      75.6169   -957.82533    3679.2314     429515.4     1358.765    506978.64    361426.96    420140.61   -27688.655    28391.475   -15941.541 
    1330   -1046.2456    87.948289    -958.2973      4279.23    434072.83    1364.2159    470622.55    403366.89    428229.05    13586.823    2559.5965   -48239.439 
    1340   -1045.4573     86.22788   -959.22941    4195.5214    415311.04    1371.0041    435078.41    423236.71    387617.99      32898.6    9918.9321   -29396.956 
    1350   -1038.2308    77.583645   -960.64714    3774.9258    408860.54    1378.4455    409071.32    458042.44    359467.86    2323.7851    30399.686   -27228.361 
    1360   -1044.9702    83.287926   -961.68232    4052.4745    396285.23    1386.1501    390099.05    421116.03    377640.61    20358.272    17173.675   -22648.961 
    1370   -1040.1362    78.076142    -962.0601    3798.8888     402238.2    1393.8988    393220.32    398714.55    414779.73    16341.335   -1292.9143    9727.2962 
    1380   -1047.3293    86.359568   -960.96971    4201.9289    363176.26    1401.6341    343429.19    354067.35    392032.24   -4399.8255   -3688.5113   -23556.559 
    1390   -1041.9802    83.454359   -958.52582    4060.5725    338543.53    1407.9552    306311.33    339637.16    369682.12   -41626.419    4887.3894   -60106.627 
    1400   -1041.8488     86.71727   -955.13155    4219.3333    345206.81    1411.9181    318665.13     353910.2     363045.1    8175.3219   -2988.6807   -68308.983 
    1410   -1044.7884    93.038023   -951.75036    4526.8772    359961.31    1413.6046    343791.85    401845.19    334246.88    728.95032    -14635.11   -5748.5467 
    1420   -1046.2567    96.271629   -949.98506    4684.2122    387896.34    1413.7619    382473.85     410628.2    370586.96   -1984.2139   -9816.8866   -18293.423 
    1430   -1038.9227    89.066183   -949.85655    4333.6225    384067.53    1413.3981    392632.51    393645.74    365924.35    -4714.462    19042.385   -21073.533 
    1440   -1033.3756    83.147732   -950.22785    4045.6531     368813.9    1412.3331    392284.74    378852.48     335304.5    12493.109   -592.26135   -31441.161 
    1450   -1039.0997    88.662042    -950.4377    4313.9585    370062.56    1410.0313    383867.98    388391.35    337928.35   -17663.826    24509.627    31042.818 
    1460   -1037.1459    86.678543   -950.46739     4217.449    384997.64    1406.6464    348974.43    417391.84    388626.66   -35733.454    56675.788    53586.227 
    1470   -1044.0752    93.300463   -950.77477    4539.6465    374241.04    1402.5796    324993.13    380828.97    416901.03   -23889.991    33410.534    13412.105 
    1480   -1040.1225    88.340473   -951.78204    4298.3122    382914.27    1397.5182    396941.91    329610.35    422190.54   -24585.442    26706.663   -18030.213 
    1490   -1033.3825    81.041087   -952.34145    3943.1518    384901.23    1391.8122    387746.77    337728.55    429228.38   -46992.778    16170.535   -4521.0149 
    1500   -1035.4801    83.062827   -952.41725     4041.522    398659.35    1385.5158     368651.6    382372.11    444954.32   -49368.063    2154.1906    10006.338 
    1510   -1042.5437    90.408146   -952.13559    4398.9173    401713.83    1379.0747    417739.22    367316.71    420085.55   -42278.909    9592.1804    5139.7962 
    1520   -1036.1465    84.046773   -952.09972     4089.397    445406.36    1373.0187    471881.91    431089.47    433247.69   -28733.541    3496.6634   -2362.0494 
    1530   -1034.5371    82.325899   -952.21116    4005.6659    470873.26    1368.6504    502492.22    436020.42    474107.16    1332.6482    18294.469    8667.5509 
    1540   -1040.2477     87.24531   -953.00238    4245.0257     452807.9    1366.8285       458592    464502.95    435328.75   -21748.548    8551.2995    47849.025 
    1550    -1029.046    74.811329    -954.2347    3640.0354    466926.67    1367.2473    496551.58    468552.62    435675.81    11015.438    23881.898   -13311.151 
    1560   -1038.6303    83.258053   -955.37221    4051.0209    455232.29    1370.1783    446132.11    468299.11    451265.64    18725.959    40677.329   -18760.982 
    1570    -1041.948    84.976824   -956.97121    4134.6498    409516.25    1375.1047    360839.49    443665.32    424043.93    5409.0789    28688.761   -16003.762 
    1580   -1041.5163    82.756153    -958.7601    4026.6004    380173.88     1380.508    352873.23    405167.64    382480.77     -20371.8   -15595.911   -18819.598 
    1590    -1045.147    84.921309   -960.22573    4131.9487    374861.72    1385.2508    390118.34    407318.67    327148.15   -6924.0881   -14475.243   -15082.859 
    1600   -1051.0254    89.273621    -961.7518    4343.7156    386765.65    1389.0843    453873.61    411256.08    295167.28   -24390.442    21493.935   -30700.424 
    1610   -1044.8707    81.084732   -963.78598    3945.2754    399179.71    1392.4622    410981.34     404039.8    382517.98   -30889.507     35801.34   -40353.116 
    1620   -1047.6905    81.767104   -965.92339     3978.477    386203.13    1395.6826    361563.45    434539.46    362506.47   -13995.888    12605.398    2517.3416 
    1630   -1046.5551    78.616749   -967.93834    3825.1927     388869.2    1398.5295    351689.84    421914.57    393003.18   -18395.565   -6231.7883    3387.2598 
    1640   -1048.1152    78.342094   -969.77306     3811.829    374419.03    1400.9287    336331.88    367331.63    419593.59   -17270.361   -31905.348   -9012.0464 
    1650   -1051.7691    80.183989    -971.5851    3901.4486    350621.11    1402.2568    324549.38    345266.88    382047.07   -42467.803    23978.005    -17050.54 
    1660   -1050.9066    77.342996   -973.56365    3763.2167    348876.03    1401.6979    334131.55    370269.73    342226.81   -30185.825    35489.995    2493.3929 
    1670   -1050.2696    75.015995   -975.25361    3649.9937    358840.94    1399.1257    316810.88    417325.34    342386.59    1589.4892     256.4593    11329.099 
    1680   -1056.5604    80.256573   -976.30387    3904.9803     349277.9    1394.7811    303018.17    376890.12     367925.4   -5549.1983   -30990.391    33499.855 
    1690   -1049.0152    72.532061    -976.4831    3529.1349    364277.61    1388.5401    341511.95    369522.15    381798.73     6074.483   -15355.658   -1680.2086 
    1700   -1046.8295     71.58319   -975.24632    3482.9664    401692.22    1380.9318    376942.77     444847.6    383286.29    18662.664    20666.164   -46421.274 
    1710   -1048.0926    75.315759   -972.77682     3664.579    431704.21    1373.3242     442188.7    422067.85    430856.06    1982.1106   -6243.8812   -3588.7804 
    1720   -1048.6768    79.072896   -969.60395    3847.3871    406351.29    1366.6975    451927.12    401568.48    365558.28    3673.2989     18475.38    17689.755 
    1730    -1040.416    74.705509   -965.71049    3634.8866    419558.84    1360.6045    425994.83    451069.64    381612.05   -7785.5886   -28694.633    16397.091 
    1740   -1043.4876    82.517433   -960.97013    4014.9852    435250.76    1355.2715    435046.42    486688.48    384017.38   -15536.188    -69674.95    7971.7361 
    1750   -1042.0161     85.50956   -956.50651    4160.5707    458694.71    1351.3803    421939.27    518964.79    435180.07   -5206.5776   -37802.354    5897.9432 
    1760   -1036.0086    82.601833   -953.40681    4019.0918    461664.88     1349.726    409047.19    496546.84     479400.6    21063.955   -40099.848   -16705.824 
    1770   -1033.0307     81.45858   -951.57213    3963.4654    442546.95    1350.3609    437972.45    440022.25    449646.17    22217.628   -66979.841    -2736.699 
    1780   -1032.7098    82.278412   -950.43139    4003.3553    412130.79    1352.5705    381981.21    425817.58    428593.59    6038.7173    -79277.21     12363.62 
    1790   -1032.1121    82.463511   -949.64856    4012.3615    400518.87    1355.3405    352532.28    424602.13    424422.18   -7992.4816   -29498.591    29412.304 
    1800   -1037.7406    88.693882   -949.04671    4315.5077    423772.45    1358.2988    395725.92    387213.68    488377.75   -39737.952   -7837.8927    3502.8678 
    1810   -1034.0995    84.685143   -949.41433    4120.4577    450561.28    1362.2344    494526.61    399991.42    457165.82   -10621.098   -50998.704    8614.2642 
    1820   -1039.2435    88.599763   -950.64372    4310.9283    418600.91      1367.95    467196.41    351282.61     437323.7   -43926.864   -24093.285     15543.03 
    1830   -1046.6797    94.035725   -952.64396    4575.4216    371841.35    1374.4249    403159.49    339606.93    372757.65   -14021.031   -5646.4964    11692.723 
    1840   -1040.1596    84.696962   -955.46262    4121.0328    360225.54    1379.9808    394564.76     346507.7    339604.16    8836.1449   -27078.548    -2607.253 
    1850   -1046.9446    88.303128   -958.64152    4296.4951    388246.35    1384.1444    387007.65    451662.13    326069.28    3237.7677   -33634.681   -10406.167 
    1860   -1044.7381    82.641893   -962.09625    4021.0409    378886.27    1387.7048    363155.66    438678.44     334824.7   -17833.097   -16937.666   -23569.667 
    1870   -1050.5898    84.995521   -965.59427    4135.5595    357826.04    1390.3965    373486.08    361670.22    338321.84    3054.3898   -15542.719    -14013.21 
    1880    -1047.394    78.746716    -968.6473    3831.5164    364699.61    1391.4176    373467.04    420337.97    300293.82    34673.705   -8784.8027   -5421.9608 
    1890   -1048.6517    78.297423   -970.35425    3809.6555     358660.2     1390.895    378146.03    391815.56    306019.03    12596.961   -8841.7956   -49852.566 
    1900   -1055.0495    84.313972   -970.73551    4102.3979    372085.99     1388.919    372576.44    390448.69    353232.84    388.87666    7052.5819   -62560.263 
    1910   -1053.7305    83.147372   -970.58308    4045.6356     377483.6    1385.8364     336338.7    452207.31    343904.78   -8371.0142    -19358.43   -3225.9944 
    1920   -1048.0261     78.10167   -969.92445    3800.1309     385161.3    1381.8225     365686.4    446561.89    343235.61    7079.1804     -25184.2    4343.8974 
    1930   -1047.0282    78.575393   -968.45276    3823.1805    390422.68    1377.3229    393478.08    430071.99    347717.98    9017.0546   -5021.6721   -16056.999 
    1940   -1048.7809    82.201917   -966.57902    3999.6334    359304.09    1372.2863    390709.49    386610.19    300592.61    12678.133        14185   -24777.357 
    1950   -1044.7042     80.41176   -964.29241    3912.5311    375500.31    1365.9428    411948.94    371927.19    342624.81    5819.3348    25358.798   -2601.3429 
    1960   -1045.2083    83.694743    -961.5136    4072.2686    408103.12    1358.7514    412486.45    390951.34    420871.57    23431.329   -653.17344    866.83095 
    1970   -1044.1267    85.392463   -958.73421    4154.8732    444229.07    1351.9064    387290.94    442885.57    502510.71   -16555.088   -49121.783   -14160.478 
    1980   -1040.0059    83.419034   -956.58691    4058.8536    474794.77    1346.8146    421396.54    506195.51    496792.24   -1968.2033   -56748.319   -20701.917 
    1990   -1048.3442    92.772013   -955.57222    4513.9341    463828.35    1344.3626    467051.91    435807.87    488625.28   -5733.4576    4250.0687   -29779.428 
    2000   -1041.7753    85.539693   -956.23564    4162.0369     458210.7    1344.3449    440950.91    435859.12    497822.08   -47142.111    8791.2817   -47182.381 
    2010   -1040.2793    82.312083   -957.96724    4004.9936    456874.78    1346.5121     414058.1    436144.84     520421.4   -20836.649    18665.482   -47463.517 
    2020   -1041.5154    81.194382   -960.32099    3950.6105    461511.58    1350.9617    472734.08    431283.19    480517.47    11707.792    18039.196   -53386.544 
    2030   -1038.4784    75.379394   -963.09896    3667.6753    435087.45    1357.7007     448072.3    405931.96     451258.1   -9792.9562   -3710.4801   -60291.873 
    2040   -1046.8271    81.328547   -965.49856    3957.1385    369787.22     1365.622     313825.6    353948.12    441587.94   -5026.0924    11843.495   -38740.815 
    2050    -1044.338    77.193087   -967.14493    3755.9227     389693.6    1372.8325    356878.53    364496.44    447705.82   -26876.694   -9360.4248   -12185.127 
    2060   -1050.8216    82.545258   -968.27637     4016.339    399620.03    1379.5193    381554.97    391819.07    425486.06   -38813.972    380.42964   -42786.529 
    2070    -1046.572    77.716998   -968.85498    3781.4142    395667.62    1386.2323    387593.84    393244.77    406164.25    -10538.06   -26200.075   -25197.585 
    2080   -1050.0808    81.935668   -968.14508    3986.6787    349621.76    1392.5824    336516.94    339119.65     373228.7    4145.0687   -42298.719   -5759.8812 
    2090   -1044.0842    77.779731   -966.30444    3784.4666    347608.24    1397.0402    350379.64    341855.96    350589.13   -19395.224   -26096.189    24969.839 
    2100   -1043.7573    80.404797   -963.35249    3912.1923    354656.96    1399.5114    374614.45    353787.56    335568.88   -32759.979   -3574.9037    12961.831 
    2110    -1043.634    84.085693   -959.54827    4091.2907    359233.28    1400.2193     375351.9    378972.41    323375.53   -12480.344   -13567.924   -19744.007 
    2120   -1050.6437    94.304104   -956.33955    4588.4798    382096.55     1399.282    379252.49    410417.49    356619.68   -11999.044    -37309.14   -21211.193 
    2130   -1038.2967    83.815375   -954.48128    4078.1381    393612.56    1397.6865    404500.17     417539.2    358798.31    4045.5653   -49982.455    5583.3562 
    2140   -1038.4441    85.330147   -953.11399    4151.8412    357010.57    1395.6196    378079.47     362661.9    330290.33     10886.03   -9615.5221   -157.67703 
    2150   -1038.9797    87.189008   -951.79072    4242.2863    364721.47    1391.9737    376224.19    366127.52     351812.7   -12835.944   -9617.9088   -16334.729 
    2160   -1044.1263    93.373557   -950.75278     4543.203       374013     1386.911    389307.79    371731.02    361000.18   -31156.376    14111.697   -28891.326 
    2170   -1037.5032    86.678001   -950.82518    4217.4226    396400.09    1380.8184     423623.8    368787.96    396788.52   -27866.007     3693.426   -49274.844 
    2180    -1028.344    77.472339   -950.87166    3769.5101    433327.24    1374.7533    425536.05    419244.52    455201.14   -23226.808   -25403.122    -31159.63 
    2190    -1041.164    90.092708   -951.07133    4383.5693    406386.43    1369.7618    366372.58    437736.06    415050.65   -16548.807   -63295.965   -8613.1754 
    2200   -1045.6809    93.226793   -952.45407     4536.062     415702.8    1365.1845    402540.11    453996.51    390571.77   -5225.2354   -47804.296   -6092.5077 
    2210   -1039.9229    84.706426   -955.21647    4121.4933    465644.52    1361.4469    428627.41    528265.96     440040.2   -17081.985   -7570.5164    11676.698 
    2220   -1043.6172    85.185699   -958.43151    4144.8129    438155.82    1359.9439    450774.14    400393.84    463299.47    14664.715   -35325.626    2026.7309 
    2230   -1040.6848    79.522093   -961.16272    3869.2433     434689.5    1360.1737    415486.49    395496.16    493085.87    8904.0064   -65559.082   -5876.3823 
    2240   -1047.7233    84.478205   -963.24511    4110.3889    417964.96    1361.6272    405938.37    421398.74    426557.76    6282.0795   -27868.941    29565.737 
    2250    -1048.008    82.946847   -965.06119    4035.8788    425931.81    1363.8924    418966.79    438500.22    420328.42    -47490.69     17989.29    29325.985 
    2260   -1047.4143    80.810962   -966.60335    3931.9548    416523.21    1367.1568       404930    413186.37    431453.27    -42068.19    32262.432    31222.031 
    2270   -1048.0771     80.27903   -967.79802     3906.073    388240.59    1371.0542    359373.11    401663.08    403685.58   -3585.3291     583.6434    8273.7298 
    2280   -1048.0567    79.520926   -968.53573    3869.1865    371518.82     1374.477    371256.48    404597.75    338702.22    7312.9519   -2646.8927    17164.257 
    2290   -1046.5723    77.884271   -968.68806    3789.5531    400211.83    1376.9716    413921.05    402135.26    384579.19   -6178.6635   -7665.1642   -12331.924 
    2300   -1051.0561    82.692431   -968.36363    4023.4999    410075.89    1379.3669    403381.43    453978.62    372867.62    24557.993    6389.2407   -18380.318 
    2310   -1054.0229    85.986431   -968.03646    4183.7734    403210.07     1382.137     396109.8     456495.5     357024.9    20161.452   -2063.5673    -26971.26 
    2320   -1051.7313    83.865649   -967.86563    4080.5843    370770.27    1384.9653    369435.92    359918.94    382955.95    489.40205    35916.503   -5000.2586 
    2330     -1045.86    78.375524   -967.48451    3813.4556    374233.33    1386.7959    379281.69    353664.93    389753.38    11626.638    55845.786   -14857.542 
    2340   -1053.2839    87.002009   -966.28193    4233.1876    378225.81    1387.6221    324847.11    400692.06    409138.25   -2339.3058    25864.381   -28399.759 
    2350   -1053.0822    88.359157   -964.72303    4299.2213    368965.27    1387.5589    326569.61    393827.62    386498.59   -27414.908   -11672.024   -31682.332 
    2360   -1047.3519    84.279982   -963.07195    4100.7441    402809.04     1386.535     362865.3    446421.38    399140.43   -1197.2357    -2867.614   -29722.925 
    2370   -1045.3565    84.449105   -960.90736     4108.973    415998.87    1385.5834    397355.62    451170.71    399470.28   -104.22736   -31350.365   -48708.602 
    2380   -1040.1877    82.255447   -957.93226    4002.2379    427533.81    1385.3412    412730.58    445592.06    424278.78   -14892.095   -20563.321   -26840.715 
    2390    -1043.643    89.664791   -953.97825    4362.7485    408056.21    1386.1195     379680.4    423823.22    420665.02   -9147.8924   -8597.0926     1816.344 
    2400   -1032.5684    82.393716   -950.17465    4008.9656    411875.16    1387.4605    393880.88    453011.71     388732.9    885.95578   -25006.234   -29015.616 
    2410   -1036.3728    89.290779   -947.08198    4344.5505    406674.73    1389.2666    394046.09    472935.53    353042.56   -2372.3154    3399.8088   -20027.957 
    2420   -1041.8295    96.462245   -945.36722    4693.4868    404990.47    1391.3964    378088.46    499517.36    337365.61    -2544.262    34769.221   -11846.655 
    2430     -1033.68    87.908595   -945.77136    4277.2987    406250.05    1393.7682    378911.76    476821.29    363017.09    31453.336    19140.256    29409.696 
    2440   -1039.1421    91.828154   -947.31396    4468.0095     390467.6    1396.2529     293140.7    470780.15    407481.93   -2348.4474     30087.92    9050.3358 
    2450   -1038.5456     88.97766   -949.56796    4329.3153    396202.49    1398.5518    337846.16    430638.13    420123.18     23101.78    41603.297   -4728.5095 
    2460   -1036.4003     84.51771   -951.88254    4112.3111    402540.74    1400.9235     344279.4     425460.2    437882.62    25616.142    28219.488    -4833.285 
    2470   -1042.3912    88.026482    -954.3647    4283.0346    390886.23    1403.3832    352378.54    426378.43    393901.72   -19515.345    22814.374     3183.501 
    2480   -1040.9606    83.961353   -956.99921    4085.2409    381124.86    1405.4929    339664.81    411078.93    392630.84    14120.054    45052.772    22217.426 
[...]
    9080   -1048.3932    78.085711   -970.30754    3799.3544    378521.59    1398.2004     397192.7    369831.42    368540.64    1486.4846    54672.219    685.77087 
    9090   -1057.7712    88.504398   -969.26678    4306.2882    370116.86    1392.0648    358768.74     357965.2    393616.65    5436.8332    42338.428    1396.7076 
    9100   -1054.5334    86.307242   -968.22618    4199.3829    390399.29    1384.7392    419607.98    385164.26    366425.63    7656.8157    -26999.36   -2514.6777 
    9110   -1057.1923    90.124003   -967.06825     4385.092    396030.73    1376.9021    419550.33     402497.9    366043.97    2316.0173   -39176.333    -22081.44 
    9120   -1049.8514    83.774865   -966.07653     4076.167    393159.28    1368.7762    387649.65    380014.26    411813.93    12638.268   -30751.172   -4936.1284 
    9130   -1049.8574    85.263747   -964.59365    4148.6104    410990.57    1360.2733    414487.98    410639.82     407843.9    25432.026    -14867.58    17272.616 
    9140   -1047.0399    84.232999   -962.80689    4098.4581    455454.37     1352.297    432798.18    483255.18    450309.76    19320.977    10400.846   -3103.9957 
    9150   -1041.3125    80.079704   -961.23284    3896.3745    482503.44    1346.4533    485494.24    484415.65    477600.42   -17717.358   -44246.965   -13820.993 
    9160   -1047.9043    87.578555   -960.32571    4261.2402    439405.34    1343.3788    449770.61    431878.54    436566.88     30925.14   -29332.514   -38657.124 
    9170   -1041.7034    81.510071   -960.19331    3965.9708     449591.3    1341.9739    463906.63    383355.92    501511.36    25945.095    11690.424   -51445.587 
    9180   -1046.2911    85.916556   -960.37459    4180.3736    472165.89    1342.6406    499689.35    448207.73    468600.58    6767.4888   -8586.3077   -71445.629 
    9190   -1043.8004    82.522491   -961.27792    4015.2313    466780.42    1346.1106    471341.79    478033.31    450966.15    6738.2205    12773.336   -50762.301 
    9200   -1047.8673    84.795284   -963.07203    4125.8168    441264.32    1352.1085    418644.57    467751.38    437397.01    7952.3623   -6022.4072    8217.4202 
    9210   -1051.0468     85.62035   -965.42645    4165.9613    396913.13    1359.7609    402272.44    393472.27    394994.68    37661.742   -11054.524    22481.358 
    9220   -1053.1705    85.077815   -968.09266    4139.5636    370603.16    1367.5476    369654.66    368733.29    373421.52    24770.364   -10586.612    9765.9438 
    9230   -1045.2407    74.576834   -970.66383    3628.6258    382776.68    1374.5363    373132.01    359797.58    415400.45     20903.77    5040.0143   -5365.9012 
    9240    -1049.033    76.591727   -972.44124    3726.6628    375398.69    1380.8552    341380.06     342018.5    442797.52    16077.975    19102.078   -20037.124 
    9250   -1049.4336    76.253154   -973.18044    3710.1892     382186.9    1386.4051    337295.59    341963.07    467302.04   -7438.8519    12193.048   -9187.3879 
    9260   -1057.6483    84.907485   -972.74082     4131.276    364075.18     1391.264    313404.65    375860.72    402960.17   -99.574602   -10954.933   -4510.8796 
    9270   -1060.0572    88.505156   -971.55201    4306.3251    350018.87    1394.7411    310087.31    346966.94    393002.36    11909.296    25381.341   -10256.024 
    9280   -1054.0129    83.849634   -970.16325     4079.805    346684.81    1396.2801    349813.15    327826.85    362414.41    10818.691    -15740.15   -3580.2724 
    9290   -1050.4893    82.420975   -968.06829    4010.2919    366058.69    1395.8423    355897.25    377912.82       364366   -8409.6846    -55322.87    6853.3979 
    9300    -1047.624    82.496561   -965.12747    4013.9696    396070.64     1394.148     401872.7    404851.02    381488.21   -15009.072    13794.095    -41315.62 
    9310   -1043.0507    81.329071   -961.72165     3957.164    391271.18    1392.1245    428103.76    376024.12    369685.66   -27431.273    17779.688   -49986.039 
    9320   -1040.4371    82.389561   -958.04753    4008.7634    379337.39    1389.6432    411368.69    357384.62    369258.85   -30642.716   -4525.6937   -33590.727 
    9330   -1039.7407    85.537415   -954.20327     4161.926    401292.61    1386.4394    455012.23    379150.71    369714.88   -20982.811   -11951.225    -34897.15 
    9340   -1036.8663    85.782131   -951.08412     4173.833    415493.35    1383.1721    413455.61    410477.85    422546.58    11839.533    21557.833    -18604.41 
    9350   -1040.8609    91.785736   -949.07519    4465.9456    411324.32    1380.3245    437801.92    380693.82    415477.23    24744.717    11884.024   -28521.755 
    9360   -1034.7996    86.563934   -948.23563    4211.8726    413730.56    1377.9236    424163.38    342285.26    474743.03   -11669.375     22759.89   -52685.365 
    9370   -1037.3421    89.242998   -948.09914    4342.2257    410168.49    1376.0362    420572.85    363486.96    446445.67   -32819.825    15200.962   -28404.327 
    9380   -1040.9922    92.177057   -948.81517    4484.9858       411480    1374.5013    416319.14     388296.4    429824.47   -5577.2661    3650.9383   -26504.564 
    9390   -1033.3879     83.30661   -950.08128    4053.3835    450053.78     1373.737    472615.04    380204.24    497342.06   -3968.9331    18008.657   -32718.537 
    9400   -1046.2617    94.275599   -951.98611    4587.0929     408810.1    1374.5878    422787.45    350185.15     453457.7   -2296.3211    17077.582    -48270.87 
    9410   -1040.4478    85.899512    -954.5483    4179.5443    433363.56    1376.2312    431880.91    394964.26     473245.5    10938.678    4922.3042    3042.2109 
    9420   -1044.4947    87.295584    -957.1991    4247.4719    425795.78    1379.1599    417180.19    394610.78    465596.37    19815.801    18567.873    15409.993 
    9430   -1044.8888    84.998334   -959.89049    4135.6964    394602.43    1383.0972    382191.65    358245.18    443370.46    23257.433   -20689.682   -17382.134 
    9440    -1046.198     84.08902   -962.10901    4091.4527    387487.63    1387.0119    441278.75    306105.75    415078.38   -19382.412    -35714.99   -5638.7909 
    9450   -1048.8761    84.934001   -963.94212    4132.5662    402346.36    1390.7012    439810.55    321994.78    445233.74   -22514.298   -12198.714    18879.518 
    9460   -1048.3957    82.654991   -965.74075    4021.6782    373093.72     1394.412    382209.18    308572.19    428499.79    1630.1314    40422.869    5259.4113 
    9470   -1041.0911    74.239027   -966.85205    3612.1894     353917.4    1397.1773    380224.16    309028.38    372499.64   -9429.5637    28579.824    -24173.25 
    9480   -1051.5513    84.744943   -966.80638    4123.3673     349231.7    1398.1202    377818.56    305273.45    364603.08   -23849.506    25042.931    4320.3808 
    9490   -1050.7046    84.471433   -966.23317    4110.0594    379245.07    1397.2012    359522.69    368950.82     409261.7   -121.42408    21387.483   -12888.694 
    9500   -1053.7787    87.974086   -965.80465    4280.4852    372618.04    1395.1283    347070.81    390030.59    380752.72    13653.216    59885.807   -10602.267 
    9510   -1049.9432    84.323827   -965.61937    4102.8775    414042.56    1392.1408    383509.19    429731.16    428887.33    21606.881    54417.725   -16725.386 
    9520    -1045.096    79.616707   -965.47928    3873.8468    421399.13    1389.6205    388413.81    437651.02    438132.55    38614.265    43623.981    21523.816 
    9530   -1049.8561     84.39958   -965.45651    4106.5633    414381.68    1387.9176    375914.22    428783.67    438447.13    54510.922    58944.682    43944.743 
    9540   -1040.2674    74.769795   -965.49759    3638.0145    429453.59    1386.9438    418230.55    415932.75    454197.45    67776.733    87250.654    10034.432 
    9550   -1048.9366    83.861381   -965.07527    4080.3766    405383.42     1386.956    390972.02    385567.62    439610.61    38281.637    30462.157   -18583.309 
    9560   -1046.6463    82.408296   -964.23804     4009.675    399369.31    1387.3383    365616.54    420738.63    411752.76    17343.223   -17771.075   -13137.064 
    9570   -1040.1725    77.443802    -962.7287    3768.1216    380544.21    1387.5877    387920.14    361862.55    391849.95   -14583.945    37925.346   -13891.345 
    9580   -1036.3525    76.654975   -959.69749    3729.7402    411561.83    1387.2835     486490.3    384790.09     363405.1   -8447.2509    34391.125   -28834.773 
    9590   -1040.8988    85.437223   -955.46156    4157.0511    432867.37    1387.3671    495493.96    386859.83    416248.33    23152.319   -4642.5491   -12504.846 
    9600   -1037.8869    85.913435   -951.97342    4180.2218    464777.76    1388.8369    431881.52    453054.18    509397.58    29131.585   -21537.008   -1404.6656 
    9610   -1042.5609    92.200033   -950.36085    4486.1037    431875.93    1392.7365     424239.1    446957.63    424431.05    5828.8088    697.49182   -8532.7483 
    9620   -1039.0102    88.606542   -950.40368    4311.2581    419713.12    1398.2715    443851.32    369214.95    446073.08    19930.384    -30297.89   -42960.823 
    9630    -1042.767    90.937909   -951.82904    4424.6936    392994.47    1404.7315    433094.99    343488.32    402400.08    35421.322   -29510.573    -24049.19 
    9640   -1040.5598    86.741818   -953.81799    4220.5277    361681.46    1411.2668     445190.1    338790.64    301063.64   -3644.1983   -22507.963   -4760.3434 
    9650   -1044.4082    88.373724   -956.03449    4299.9301    366367.91    1416.5974    431644.94    373994.72    293464.06    2483.0246   -33400.714   -11912.439 
    9660    -1042.521    83.672042   -958.84891    4071.1641    391928.27    1420.6667    452507.06    383189.92    340087.83    46150.666   -7912.2729    3080.9183 
    9670    -1045.374    83.672765   -961.70125    4071.1993    386633.82    1424.4839    419350.67    365395.69     375155.1    70661.063     17952.32    -6613.198 
    9680   -1046.6206    82.115224   -964.50541    3995.4152    350667.02    1427.7464    361829.55    355137.12     335034.4    46766.038    59253.014   -45579.521 
    9690   -1050.4751    83.660143   -966.81499    4070.5851    344698.25    1429.1462    337588.72    327365.28    369140.75    23651.966    43560.982   -14959.739 
    9700   -1046.1073    77.553822   -968.55348    3773.4747    383455.82    1428.5475    420088.84    313289.17    416989.44    27347.804    27244.526   -3426.2018 
    9710   -1053.6588    83.817935   -969.84082    4078.2626    357446.64    1426.8558    361257.68    319946.46    391135.78    40386.905    19946.773   -21003.277 
    9720   -1058.9324    87.976652   -970.95577      4280.61    337626.87    1423.3441    335598.45    317719.65     359562.5    40266.713    23890.218     5506.173 
    9730   -1050.0656    78.286277   -971.77929    3809.1132     369684.7    1417.4585    370292.04    352304.72    386457.34    47436.024    16262.244    38236.339 
    9740   -1047.2134    75.150711   -972.06265    3656.5484    362590.47    1409.9287     383666.8    345004.83    359099.78    39414.676    51545.735    15013.257 
    9750   -1053.6948    81.899091   -971.79568     3984.899    353123.44    1400.5398    380324.89    355774.75    323270.67    47239.913    57546.738   -26387.315 
    9760   -1053.1676    82.148161   -971.01944    3997.0178    377695.14    1389.2561    392383.92    361201.72    379499.79    42326.796     25586.83   -9799.8782 
    9770   -1045.2177    75.002245   -970.21543    3649.3247    419253.64    1377.1218    434713.85    384809.06    438238.01    16070.034    28730.867    15562.699 
    9780   -1054.6311    84.424272   -970.20683    4107.7647    426447.41    1365.4169    483559.29    362492.63    433290.31    43694.883    64297.822    12030.558 
    9790   -1045.1534    73.794975    -971.3584    3590.5835    444817.81      1354.83     462680.3    421127.05    450646.08    35022.971    31119.068   -5697.7676 
    9800    -1047.113    74.536132   -972.57686    3626.6453     432360.2     1345.791    421807.17    441080.12     434193.3     32642.42    26765.296   -17055.337 
    9810   -1041.2291    68.507257   -972.72187    3333.3031    465443.76    1338.1272    478581.53    438416.66     479333.1    16272.275    46121.889    15098.524 
    9820   -1046.9342    75.179183   -971.75504    3657.9338    490349.75    1332.8912    465588.12    472523.21    532937.94    23445.448    31556.716     41834.96 
    9830   -1045.7776    75.058118   -970.71946    3652.0432    503529.38    1330.9797    514796.54    486790.35    509001.27    50861.216    35873.929    21252.249 
    9840   -1046.1186    76.070987   -970.04765    3701.3256    484113.12    1332.7632     534435.6    472537.94    445365.83   -4802.2852    34435.308    2472.1119 
    9850   -1046.5614     77.05223   -969.50914    3749.0691    470474.78     1337.833    431451.42    484057.52     495915.4   -2346.2161    42162.059   -1313.7021 
    9860   -1048.3707    79.407291    -968.9634    3863.6575    449532.43     1345.716    420683.73    414141.32    513772.23    19877.588    44660.045     13662.11 
    9870   -1052.9806    84.276414   -968.70415    4100.5705    409201.22    1355.5615     402902.7    421162.19    403538.77    20731.555    56313.706   -25785.146 
    9880   -1045.3654    75.939262    -969.4261    3694.9163    427673.68    1366.2751    405597.54    465012.28    412411.22   -13205.491    61492.267   -15596.903 
    9890   -1055.4391    84.756918   -970.68221      4123.95    396477.24    1377.9878    392527.84    382220.29     414683.6   -35464.574    27028.898    4212.8596 
    9900   -1047.8596    75.571349   -972.28827    3677.0151    364343.31    1389.7252    391305.53    323020.34    378704.06   -8418.0476    34928.809    671.26889 
    9910   -1044.8864    71.716572   -973.16981    3489.4563    335003.71    1400.1503       353686    309922.74    341402.38    9996.4821    40661.558    -26887.47 
    9920   -1052.3013    79.510246   -972.79108    3868.6668    331453.95    1408.0361    321143.65    325324.42    347893.79    17574.526    24612.572    -11.69284 
    9930   -1049.0953      77.2368   -971.85848    3758.0496    337606.21    1413.0896       355213    311717.12     345888.5    3383.1453    19692.401    43764.483 
    9940   -1054.6055    84.326121   -970.27936    4102.9891     317408.2    1415.3975    323636.65    304141.02    324446.92   -7369.4834     19541.33    41890.531 
    9950   -1049.2187    80.991039    -968.2277    3940.7166    327084.58    1414.4799    328099.74    324739.22    328414.78   -6774.3906    16834.743    10827.961 
    9960   -1049.1428    83.570363   -965.57246    4066.2168    357507.28    1410.6026    325987.68    362057.12    384477.04   -3131.1379     29870.09    49223.675 
    9970   -1050.6185    87.923152   -962.69533     4278.007     394496.5    1405.0082     378229.7    373948.68    431311.13    7106.1649    34118.713    59350.797 
    9980   -1047.8227    87.560977   -960.26174    4260.3849    388172.48    1399.0835    426254.07    334387.01    403876.36     15840.56    31819.892    2425.2636 
    9990   -1039.5311    81.262687    -958.2684     3953.934    392277.35    1392.8347    439390.23    362828.33    374613.48    2442.5761    40142.541   -12738.454 
   10000   -1043.9216    87.674374   -956.24718    4265.9024    414489.13    1386.3579    435654.05     381970.5    425842.85    6419.0364    83501.239    -2322.195 
   10010    -1035.036    80.514915   -954.52108    3917.5502    439138.93    1380.5681    431127.59    428178.99     458110.2    27022.691    74105.251     35385.78 
   10020   -1036.2986    83.102052   -953.19653    4043.4305     403319.4    1376.1158    387319.83    380311.89    442326.48    10585.044    32374.956    19436.979 
   10030   -1033.3709    81.542487   -951.82837     3967.548    400361.09    1372.0369    420633.87    362976.85    417472.56    19798.293    4932.3399    10425.358 
   10040   -1041.0958     90.88503   -950.21078    4422.1207    434149.69     1368.186    444227.59    385620.85    472600.63   -4182.9376   -3305.2007   -31630.263 
   10050     -1043.17    93.465096   -949.70493    4547.6569    459052.85    1365.6643    463224.26    392700.21    521234.07    595.73208    23774.754   -52777.853 
   10060   -1036.8723    85.299141   -951.57317    4150.3326    438900.94    1365.2453    418752.12    465554.75    432395.93   -21321.579    33160.592   -22978.189 
   10070   -1041.3144    86.228002   -955.08639    4195.5274    397423.18    1366.1969    357189.58    478059.17    357020.79   -15116.706    9866.9133    15219.168 
   10080   -1043.0438    83.498546    -959.5453    4062.7224    410638.78    1367.2874    405623.74    476286.92    350005.68   -3683.0464   -3440.3982    17358.356 
   10090   -1046.4758    82.671229   -963.80462    4022.4683    429298.18    1368.8664    389842.66    468353.89    429697.99   -4997.8883    10968.184   -7111.2536 
   10100   -1047.3288     79.61817   -967.71058     3873.918    400746.94    1371.3547    398542.85    428206.28    375491.68     28736.31    2171.7109    46011.145 
   10110   -1052.1996     81.77355   -970.42605    3978.7906    373636.89    1373.8055    393999.12    369617.43    357294.14     -1565.99    -471.2535    30236.299 
   10120   -1052.9464    80.788778   -972.15761    3930.8754    407450.71    1375.5838    354789.94    384809.97    482752.21   -34509.558    6871.9469    9993.2848 
   10130   -1060.7804    87.005098   -973.77535    4233.3379     389274.4    1377.3728    336707.38     365668.7    465447.13   -42554.101    2139.2094   -143.83151 
   10140   -1047.5335    72.451701   -975.08184    3525.2249    386625.13     1378.887    363464.06    371128.16    425283.16   -20700.738    35868.885    23117.613 
   10150   -1053.2105    78.036279   -975.17425    3796.9492    373048.59    1379.8285    355502.21    367106.18    396537.39   -21033.203    25388.869    10531.619 
   10160   -1053.2403    78.952777   -974.28754    3841.5425    364907.92    1379.6579    342400.28    358391.86    393931.61   -7868.6931    2116.3325   -18943.937 
   10170   -1051.4982    78.877472   -972.62075    3837.8785    370777.74    1378.1189    377971.43    356405.28    377956.52   -21155.913    43614.293    7864.5593 
   10180   -1053.4457    83.427633   -970.01802    4059.2721    365740.85    1375.4109    376132.21     363954.2    357136.13   -2914.2676    31233.943    6076.1906 
   10190   -1048.5885    81.809391   -966.77915    3980.5345    404208.96    1371.5722       401483    378971.42    432172.46    35648.981    18745.295    55369.855 
   10200   -1044.5381    81.217938   -963.32014    3951.7567    442082.98    1367.9413    434217.46    443194.34    448837.16    54103.751    22256.991     55943.47 
Loop time of 272.941 on 36 procs for 10000 steps with 160 atoms

Performance: 3.166 ns/day, 7.582 hours/ns, 36.638 timesteps/s
113.2% CPU use with 36 MPI tasks x no OpenMP threads

MPI task timing breakdown:
Section |  min time  |  avg time  |  max time  |%varavg| %total
---------------------------------------------------------------
Pair    | 142.33     | 179.36     | 206.31     | 152.6 | 65.71
Neigh   | 0.044897   | 0.050656   | 0.058856   |   1.8 |  0.02
Comm    | 65.642     | 92.604     | 129.67     | 212.4 | 33.93
Output  | 0.07339    | 0.078761   | 0.19849    |   7.2 |  0.03
Modify  | 0.62937    | 0.80774    | 0.86345    |   4.7 |  0.30
Other   |            | 0.03782    |            |       |  0.01

Nlocal:        4.44444 ave           7 max           2 min
Histogram: 1 0 5 0 14 0 10 0 5 1
Nghost:        833.611 ave         851 max         815 min
Histogram: 3 4 0 7 4 4 4 1 6 3
Neighs:        0.00000 ave           0 max           0 min
Histogram: 36 0 0 0 0 0 0 0 0 0

Total # of neighbors = 0
Ave neighs/atom = 0.0000000
Neighbor list builds = 1000
Dangerous builds not checked

Please see the log.cite file for references relevant to this simulation

Total wall time: 0:04:41
