LAMMPS (29 Oct 2020)
variable    T equal 4050   # temperature in K
variable    P equal 400000.00 # P in bar
variable    V equal vol
variable    dt equal 0.001  # ps

variable    NSWeq equal 10000 # equil run step


# calculate fparam for deepmd potential
variable    kBeV equal 8.617333262e-5    # eV/K, Boltzmann
variable    TeV equal  ${T}*${kBeV}
variable    TeV equal  4050*${kBeV}
variable    TeV equal  4050*8.617333262e-05

# convert from LAMMPS metal units to SI
variable    kB equal 1.3806504e-23       # [J/K] Boltzmann
variable    ev2j equal 1.60218e-19
variable    A2m equal 1.0e-10
variable    ps2s equal 1.0e-12
variable    convert equal ${ev2j}*${ev2j}/${ps2s}/${A2m}
variable    convert equal 1.60218e-19*${ev2j}/${ps2s}/${A2m}
variable    convert equal 1.60218e-19*1.60218e-19/${ps2s}/${A2m}
variable    convert equal 1.60218e-19*1.60218e-19/1e-12/${A2m}
variable    convert equal 1.60218e-19*1.60218e-19/1e-12/1e-10


units           metal
boundary        p p p
atom_style      atomic

neighbor        2.0 bin
neigh_modify    every 10 delay 0 check no

read_data       conf.lmp
Reading data file ...
  triclinic box = (0.0000000 0.0000000 0.0000000) to (11.150434 11.150434 11.150434) with tilt (0.0000000 0.0000000 0.0000000)
  1 by 1 by 2 MPI processor grid
  reading atoms ...
  160 atoms
  read_data CPU = 0.002 seconds
mass            1 24.305
mass            2 28.085
mass            3 15.999
#mass            4 2.0156
#read_restart    poly.restart.1140000
pair_style      deepmd /u/project/ESS/lstixrud/jd848/pv_hf_copy/pvh/m12/v3/pv.pb fparam ${TeV}
pair_style      deepmd /u/project/ESS/lstixrud/jd848/pv_hf_copy/pvh/m12/v3/pv.pb fparam 0.349001997111
#pair_style      deepmd /u/project/ESS/lstixrud/jd848/pv_hf_copy/pvh/m12/v3/m12v3.comp.pb fparam ${TeV}
pair_coeff



velocity        all create $T 23456789
velocity        all create 4050 23456789
fix             1 all nvt temp $T $T 0.04
fix             1 all nvt temp 4050 $T 0.04
fix             1 all nvt temp 4050 4050 0.04
timestep        ${dt}
timestep        0.001
thermo          1
thermo_style    custom step pe ke etotal temp press vol pxx pyy pzz pxy pyz pxz
dump            2 all custom 500 npt.dump id type x y z
restart 10000  poly.restart
run             ${NSWeq}
run             10000
Neighbor list info ...
  update every 10 steps, delay 0 steps, check no
  max neighbors/atom: 2000, page size: 100000
  master list distance cutoff = 8
  ghost atom cutoff = 8
  binsize = 4, bins = 3 3 3
  1 neighbor lists, perpetual/occasional/extra = 1 0 0
  (1) pair deepmd, perpetual
      attributes: , newton on
      pair build: full/bin/atomonly
      stencil: full/bin/3d
      bin: standard
Per MPI rank memory allocation (min/avg/max) = 3.882 | 3.882 | 3.882 Mbytes
Step PotEng KinEng TotEng Temp Press Volume Pxx Pyy Pzz Pxy Pyz Pxz 
       0   -1043.9214     83.23707    -960.6843         4050    411071.62    1386.3579    426418.57    389869.16    416927.13    5500.3736    76215.317   -22706.832 
       1   -1045.2867    84.593538   -960.69318    4116.0006    407112.99    1386.3579    422903.62    382057.28    416378.07    4936.5693    74230.134    -21893.36 
       2   -1046.3317    85.631937   -960.69976    4166.5251    402377.55    1386.3579     418771.9    374269.42    414091.34    5323.7607    71743.226    -20098.79 
       3   -1046.9799    86.275427   -960.70445    4197.8349    397676.65    1386.3579    414246.68     367765.2    411018.07    5608.1095    69585.765   -17616.036 
       4   -1047.2269    86.520368   -960.70656    4209.7528    394152.07    1386.3579    413005.59    362383.88    407066.74    5905.9386    67228.312   -15285.312 
       5   -1047.1474    86.437745   -960.70966    4205.7327    390541.34    1386.3579    411883.31    356059.36    403681.34    5841.5329    64065.202   -13495.187 
       6   -1046.8843    86.168773   -960.71554    4192.6455    387316.69    1386.3579     410986.5    351094.14    399869.45    5769.8361    60454.247   -11945.338 
       7   -1046.6177    85.894014   -960.72366    4179.2768    384663.81    1386.3579    411233.68    345380.23     397377.5    6439.3061    56445.043   -11145.831 
       8   -1046.5253    85.786295   -960.73901    4174.0356    382159.87    1386.3579    410977.97     340523.4    394978.25    7606.0133    52146.645   -11954.681 
       9   -1046.7283    85.962269   -960.76601    4182.5978    380129.42    1386.3579       411638    335796.12    392954.13    8788.5944    48178.961     -13998.6 
      10   -1047.2563    86.454516   -960.80182    4206.5487    378299.96    1386.3579    411769.42    331009.79    392120.68    9907.8541    44808.115   -16744.306 
      11    -1048.051    87.205181   -960.84579    4243.0732    377864.84    1386.3579    413416.82    327262.54    392915.16    11994.337    42365.409   -20249.672 
      12   -1048.9929    88.093551   -960.89931    4286.2979    378134.16    1386.3579    415963.43    325438.71    393000.33    13351.447    40474.888   -22959.896 
      13   -1049.9357    88.973505   -960.96222    4329.1131    378272.87    1386.3579    417871.93    324290.03    392656.64    13653.243    39196.567   -25341.746 
      14   -1050.7211    89.694562   -961.02659     4364.197    379081.48    1386.3579    420322.65    322845.92    394075.86    14489.162    37589.512   -26877.023 
      15   -1051.2491    90.151194   -961.09795     4386.415    380670.67    1386.3579    423184.64    323052.72    395774.66    13866.584    36735.298   -26404.695 
      16   -1051.4691    90.290372   -961.17875    4393.1869    382765.38    1386.3579     426403.9    324186.25    397706.01    13541.045    36826.787   -25541.827 
      17   -1051.3606    90.097024   -961.26355    4383.7793    385430.29    1386.3579    431240.32    325965.86    399084.68    12166.797    37443.642   -23277.577 
      18   -1050.9581    89.592948   -961.36511    4359.2529    390063.96    1386.3579    437703.33    328528.63    403959.91    11925.977    38365.554   -18760.022 
      19   -1050.2817    88.815429   -961.46631    4321.4218    395198.41    1386.3579    443977.66    332383.81    409233.76    11655.704    39526.308   -13745.434 
      20   -1049.4132    87.835879   -961.57734    4273.7606    400008.33    1386.3579    450839.08    335982.79    413203.11    11285.971    40681.419   -9133.2928 
      21   -1048.4494    86.756323   -961.69304    4221.2335    404418.07    1386.3579    456353.88    340462.24    416438.09    11860.644    42154.508   -3897.9334 
      22   -1047.5122    85.701925    -961.8103    4169.9305    408561.11    1386.3579    460920.04    345069.49     419693.8    13245.393    43915.637     1189.622 
      23   -1046.7366    84.796525   -961.94011    4125.8772    411864.81    1386.3579    463471.63     348580.6    423542.22    14504.608    46261.585    6227.2495 
      24   -1046.1792    84.108606    -962.0706    4092.4056    414716.15    1386.3579    463747.08    353225.28    427176.09    14630.375    47993.116    11490.113 
      25   -1045.8471    83.637726    -962.2094    4069.4944    415937.83    1386.3579    461952.65    357058.88    428801.97    13419.668    49270.372    16187.193 
      26   -1045.6761     83.32148   -962.35463     4054.107    414732.55    1386.3579    458314.79    359446.09    426436.75    11140.849     49516.29    20233.767 
      27   -1045.5674    83.070141   -962.49723    4041.8779    413837.64    1386.3579    455282.46    362742.46    423487.99    7906.5903    49956.101    24994.583 
      28   -1045.4489    82.811343   -962.63757    4029.2857    410794.99    1386.3579    450138.14    364776.29    417470.54    3888.2721    49855.394    29260.476 
      29   -1045.2724       82.491   -962.78136     4013.699       408473    1386.3579    446843.67    367402.49    411172.84   -1242.2164    49095.288    31843.611 
      30   -1044.9734    82.047382   -962.92603    3992.1143    407658.44    1386.3579    445666.85    371072.75    406235.72   -6740.2379    47220.545    33516.934 
      31   -1044.4985    81.430518   -963.06793       3962.1    406468.92    1386.3579    444189.33    373225.07    401992.36   -12377.548    44390.509    34682.245 
      32   -1043.8426    80.640076   -963.20252    3923.6401    404762.48    1386.3579    442526.62    374464.86    397295.96   -18315.762    40848.888    35710.717 
      33   -1043.0864    79.754573   -963.33187    3880.5549    402416.36    1386.3579    440428.79    372532.45    394287.85   -23537.141    36874.362    36277.667 
      34   -1042.3565    78.896702   -963.45982    3838.8141    400163.02    1386.3579    437374.68    370704.44    392409.93    -25568.17    32118.268    36292.481 
      35    -1041.773     78.18805   -963.58498    3804.3338    398427.37    1386.3579    434284.07    370029.54     390968.5   -29105.868     29200.68    36178.515 
      36   -1041.4294    77.716822   -963.71261    3781.4057    397517.72    1386.3579    430894.53    370303.71    391354.92   -30904.149    27564.595    34778.198 
      37    -1041.332    77.492052   -963.83994    3770.4692    395344.62    1386.3579    424614.02    370438.27    390981.57   -31880.907    26144.504    32987.052 
      38   -1041.4127    77.448032   -963.96467    3768.3273    393579.98    1386.3579    419553.86    369785.52    391400.57   -32292.678    25643.239    29891.408 
      39   -1041.5935    77.511455   -964.08209    3771.4133    392841.98    1386.3579    415196.35    370153.64    393175.95   -31930.052    26843.525    26750.497 
      40   -1041.8402    77.646909   -964.19326    3778.0039    391385.74    1386.3579    409103.11    371016.48    394037.63   -30964.204    28874.727    23734.115 
      41   -1042.1694     77.87163    -964.2978     3788.938     391019.2    1386.3579    404721.68     372393.2    395942.71   -29555.263    31824.506    21065.711 
      42   -1042.6436    78.242893    -964.4007    3807.0023    389952.83    1386.3579    400040.21     371986.3    397831.98   -27209.601    35542.277    18329.869 
      43    -1043.291    78.786411   -964.50455    3833.4478    388931.83    1386.3579    395003.97    370521.68    401269.83   -25014.527    39676.349    16500.542 
      44   -1044.0816    79.469292   -964.61227    3866.6742    389105.36    1386.3579    392907.76    368957.25    405451.09   -21529.219     44689.45    15103.604 
      45   -1044.9104    80.186687   -964.72371    3901.5799    389016.13    1386.3579    390220.38    367546.89    409281.13    -16991.25    49162.149    15251.341 
      46   -1045.5994     80.76164   -964.83774     3929.555    389129.95    1386.3579    387657.02    366586.94     413145.9   -12108.493    53759.362    17166.799 
      47   -1045.9527    81.006193   -964.94648     3941.454    390860.24    1386.3579    386827.34     367231.3     418522.1   -7642.9715    57609.637    18942.603 
      48     -1045.83    80.777389   -965.05266    3930.3212    393117.32    1386.3579    387208.33    368332.77    423810.88   -3558.3426    61046.887    21474.334 
      49   -1045.1669      80.0207   -965.14621    3893.5036    395530.19    1386.3579    388158.91    369050.76    429380.89   -38.069682    64001.921    24696.072 
      50   -1044.0458    78.811811   -965.23401    3834.6837    399343.96    1386.3579    392172.41    369970.98    435888.48    3009.9081    65378.947    28909.023 
      51   -1042.6702    77.359411   -965.31076    3764.0154    402842.52    1386.3579     395645.9    372259.43    440622.24     4552.405    64832.168    32304.604 
      52   -1041.3309    75.946654   -965.38428     3695.276    405494.24    1386.3579    399410.84    374965.02    442106.87    5002.4886    62903.541    34403.159 
      53   -1040.2697    74.810466   -965.45922    3639.9934    407091.27    1386.3579    403899.95    377115.39    440258.47    4601.7369    59867.508    35835.348 
      54   -1039.6147    74.080582   -965.53408      3604.48    407208.51    1386.3579     407299.7    378245.76    436080.05    2792.0216    55843.322    35674.398 
      55   -1039.3859    73.782546   -965.60337    3589.9787    407153.51    1386.3579    411935.18       378676    430849.36    1609.4323    50534.468    34963.898 
      56   -1039.5368    73.872596   -965.66416    3594.3602    405904.57    1386.3579     414067.5    378656.59    424989.62    1426.1527    44810.335    33668.232 
      57   -1040.0335    74.321875   -965.71167    3616.2204     403410.3    1386.3579    416264.51    376266.22    417700.17    974.36168    39002.135    32034.084 
      58   -1040.8838    75.132836   -965.75098    3655.6787    399129.46    1386.3579    414748.12     372988.1    409652.16    2.1026705    33889.491    30754.716 
      59    -1042.085    76.294714    -965.7903    3712.2113    394857.53    1386.3579    411075.22    370006.04    403491.34   -516.72423     29399.34    30878.873 
      60   -1043.5604    77.730839   -965.82957    3782.0877    390998.17    1386.3579     407549.2    367119.37    398325.92    -521.8595    25718.261    31660.482 
      61   -1045.1531    79.287073   -965.86606    3857.8081    388043.03    1386.3579    401930.67    367207.23    394991.18   -472.46865    23377.594    31983.526 
      62   -1046.6685    80.771356   -965.89718    3930.0277    384498.29    1386.3579    394806.28    367755.81    390932.79   -201.07474    22066.301    33483.118 
      63   -1047.9262    81.997447   -965.92874    3989.6846    381299.56    1386.3579    386798.51    370194.57     386905.6   -262.22802    21714.088    34938.713 
      64   -1048.7611    82.808628   -965.95243    4029.1536     378392.1    1386.3579     379588.8    372972.68    382614.83   -71.298689    22137.694    35756.442 
      65   -1049.0893    83.122097   -965.96719    4044.4058    376237.84    1386.3579    373916.86    375630.25     379166.4    445.59091    23155.148    36090.559 
      66   -1048.9428    82.963946   -965.97881    4036.7108    376304.91    1386.3579    370240.08    381186.83    377487.82   -12.546272    23886.883    35612.677 
      67   -1048.4318    82.440176   -965.99166    4011.2261    376769.67    1386.3579    368309.09    385868.36    376131.57   -1575.8388    25466.528    34712.889 
      68   -1047.6858    81.682487   -966.00332    3974.3599    376381.18    1386.3579    366721.66    388164.48    374257.41   -3850.1789    26214.029    33882.977 
      69   -1046.8551    80.841353   -966.01372    3933.4335    378151.15    1386.3579    365821.24    393327.35    375304.87   -7471.9596    26721.876     32442.09 
      70   -1046.0835    80.057603   -966.02587    3895.2992    379442.39    1386.3579    366730.88    395946.33    375649.97   -9730.9715    26714.696    30793.917 
      71   -1045.4618    79.423453   -966.03835    3864.4439     380531.1    1386.3579    367215.17     397574.9    376803.23   -12077.422    25680.378    29327.474 
      72   -1045.0291    78.979424   -966.04965    3842.8391     382529.6    1386.3579    368237.37    400105.44    379245.98   -15474.602    24270.204    26836.208 
      73   -1044.7828    78.724287   -966.05849    3830.4251    383892.25    1386.3579    369741.93    401123.99    380810.83   -18895.718    21373.462    24644.954 
      74   -1044.6855    78.620072    -966.0654    3825.3544    384824.19    1386.3579    372560.96    401140.34    380771.27    -22329.51    18430.512    21665.269 
      75   -1044.6613    78.594657   -966.06661    3824.1178    385766.31    1386.3579    375318.95    401765.73    380214.24    -26101.69    15513.359    19142.235 
      76   -1044.6454    78.586405   -966.05903    3823.7163    388317.57    1386.3579    379896.85    404461.73    380594.14   -28036.017    12558.695    16703.533 
      77   -1044.6046    78.562536   -966.04205    3822.5549    389973.68    1386.3579    385569.75    405884.15    378467.14   -29636.988     9704.412    14322.594 
      78   -1044.5383    78.523809   -966.01449    3820.6706    391496.24    1386.3579     391716.9    407430.61    375341.21   -31253.688     7474.419    12354.948 
      79    -1044.514    78.535289   -965.97871    3821.2292    391715.94    1386.3579    396755.58    407100.17    371292.07   -31307.242    4890.1259    12011.576 
      80   -1044.6391    78.704331   -965.93474    3829.4541    392064.99    1386.3579    402170.77     405431.5    368592.69   -30525.934    3879.8166    13366.262 
      81   -1044.9866    79.091154   -965.89546    3848.2754     391897.2    1386.3579    406717.79    402777.51    366196.32    -28728.88    4148.1539     15909.16 
      82   -1045.5063    79.652521   -965.85374    3875.5894    390893.45    1386.3579    410084.12    398754.38    363841.85   -25955.012     5931.214    18101.892 
      83    -1046.065    80.257235   -965.80781    3905.0125    390246.17    1386.3579    413104.92    394870.23    362763.34   -23072.283    8540.2811    20828.645 
      84   -1046.4799    80.725671   -965.75427    3927.8048    390261.17    1386.3579    416818.71    391686.76    362278.03   -20545.844    12287.742    24476.905 
      85   -1046.5873    80.900429   -965.68688    3936.3079    389357.48    1386.3579    419504.19    387218.26    361349.99    -18635.28    16383.425    27846.788 
      86   -1046.3283    80.724436   -965.60383    3927.7448    389942.86    1386.3579    424147.38    382936.06    362745.15   -17351.746    19966.459    30498.344 
      87   -1045.7927    80.288816   -965.50386    3906.5491    390481.01    1386.3579     429002.7     379736.3    362704.02   -16727.892    23531.016     32642.35 
      88   -1045.2178     79.82311    -965.3947    3883.8897    392913.85    1386.3579    434891.25     379114.5    364735.82    -15554.43    26173.395    34033.816 
      89    -1044.877     79.59213   -965.28489     3872.651    395098.95    1386.3579    438796.27    380363.12    366137.46   -14746.358    29219.127    35910.786 
      90    -1044.963    79.787383   -965.17564    3882.1513    393566.42    1386.3579    437884.44    379385.67    363429.15   -14223.228    31392.123    38099.406 
      91   -1045.5173    80.448919    -965.0684    3914.3391    391673.36    1386.3579     435020.4    378450.04    361549.62   -13201.933    32553.121    39265.994 
      92   -1046.3995    81.438811   -964.96068    3962.5035    389043.01    1386.3579    427911.22    378977.95    360239.85   -13879.911    33096.917    40249.874 
      93   -1047.3561    82.513335   -964.84277    4014.7858    384979.46    1386.3579     416848.4    378106.82    359983.15   -13887.137    32975.508    43558.253 
      94   -1048.1496    83.440175   -964.70946    4059.8823    381612.51    1386.3579    405608.65    376960.33    362268.54   -13048.402    31417.298    47061.306 
      95   -1048.6311    84.064559   -964.56653    4090.2625    379062.72    1386.3579    394331.31    377377.14     365479.7   -11997.831     28886.59    50476.071 
      96   -1048.7505    84.340754   -964.40975    4103.7011    376233.47    1386.3579    382815.07    377826.94     368058.4   -11159.228    25740.892    54170.343 
      97   -1048.5584    84.306883    -964.2515     4102.053    374418.52    1386.3579    372562.89    377805.75    372886.94   -11484.698    23083.875    56987.163 
      98   -1048.1079    84.021686   -964.08625    4088.1764    373296.95    1386.3579    364891.61     376148.9    378850.34    -12946.29    19755.533    59501.275 
      99   -1047.4673    83.546932   -963.92032    4065.0767    373970.76    1386.3579    360062.43    376362.51    385487.34   -13923.061    17316.047    62953.548 
     100    -1046.699    82.946425   -963.75259    4035.8583    375232.14    1386.3579    356805.36    376779.51    392111.54   -13458.286    16001.835     64959.28 
     101   -1045.8678    82.287682   -963.58008    4003.8064    376636.26    1386.3579     353853.2    376542.35    399513.22   -12810.827     15564.28    66280.188 
     102    -1045.063    81.658218    -963.4048     3973.179    377476.37    1386.3579    349997.01    376361.66    406070.45   -12356.529    16868.534    66795.126 
     103   -1044.3694     81.14796   -963.22148    3948.3518    379616.66    1386.3579    348912.96    377815.77    412121.25   -10385.435    18964.231    66486.633 
     104   -1043.8896    80.859624      -963.03    3934.3225    382815.48    1386.3579    348947.22     381359.3    418139.92   -8070.5125    21320.124    64606.061 
     105   -1043.7493    80.912355   -962.83695    3936.8882    385583.83    1386.3579    348600.34    385660.59    422490.57   -5718.7267     24717.91     61555.14 
     106   -1043.9956    81.350295   -962.64528    3958.1967    388410.54    1386.3579    348669.83    390149.53    426412.25   -3948.0462    28215.378    56665.502 
     107   -1044.5699    82.123156   -962.44672    3995.8011    389950.39    1386.3579    346717.97    394984.17    428149.02   -4353.7718    32251.473    51699.735 
     108   -1045.3545    83.107575   -962.24693    4043.6993    391858.32    1386.3579    345351.68    400790.95    429432.33   -5169.4387    36051.664    47490.546 
     109   -1046.1643    84.124606   -962.03969    4093.1841    395272.46    1386.3579    346205.83    407573.96     432037.6   -6216.2066    39017.837    43515.964 
     110   -1046.8152    84.992014   -961.82319    4135.3889    398699.02    1386.3579    348224.76    413951.53    433920.79   -9780.2119    42646.307    39382.712 
     111    -1047.168     85.57143   -961.59656    4163.5811    402069.11    1386.3579    350060.74    420750.75    435395.85   -13718.806    45515.257    35920.094 
     112   -1047.1504    85.781756   -961.36867    4173.8147    406741.14    1386.3579    351926.99    428568.14     439728.3   -17796.964    47549.589    34083.337 
     113   -1046.7302    85.592622   -961.13757    4164.6122    411747.54    1386.3579    355191.75    436097.32    443953.54   -22732.847    50604.181    33690.032 
     114   -1045.9253     85.02522   -960.90013    4137.0046    415775.24    1386.3579    358723.22     441768.9    446833.61   -27782.113    52602.481    34502.997 
     115    -1044.818    84.155799   -960.66216    4094.7018     421210.2    1386.3579    363298.48    449347.96    450984.15   -32717.431    54176.654    34764.754 
     116   -1043.5229    83.098415   -960.42453    4043.2535    427614.47    1386.3579    369001.63    459039.53    454802.26   -35666.311     55671.96    35300.462 
     117   -1042.1553    81.966774   -960.18856    3988.1922    433858.02    1386.3579    375962.41    467541.47    458070.17   -38081.406    55878.562    36534.128 
     118   -1040.8292    80.875862   -959.95337    3935.1126    439179.79    1386.3579    381274.31    475901.76     460363.3   -40036.775    55812.759    38304.017 
     119   -1039.6454    79.929822   -959.71556    3889.0818    443434.39    1386.3579    387371.31    483203.65    459728.22   -41376.316    55557.703    38820.776 
     120     -1038.67    79.193989   -959.47604     3853.279    446374.64    1386.3579    392201.74    488128.79    458793.38   -41796.417    54512.114    38195.974 
     121     -1037.96     78.72902   -959.23097    3830.6554    448247.44    1386.3579     396121.4    490926.88    457694.04   -40148.066    52290.732    38023.607 
     122   -1037.5785    78.601493   -958.97702    3824.4504    449568.63    1386.3579    398245.41    494015.66    456444.82   -37591.186    48885.469    37610.002 
     123    -1037.601    78.884568   -958.71639    3838.2238    449505.43    1386.3579    399194.93    495026.38    454294.99   -35496.827     44029.67    37083.478 
     124   -1038.0913    79.637862   -958.45345    3874.8762    447813.21    1386.3579    399801.11    491859.19    451779.34     -32431.2    38828.598    35646.887 
     125   -1039.0287    80.841796   -958.18687     3933.455    445093.07    1386.3579    399116.65    487495.02    448667.56   -29429.686    33365.633    35970.292 
     126   -1040.3111    82.395037   -957.91608    4009.0299    441792.32    1386.3579    396874.35    482224.29    446278.32   -25348.926    27926.554    36957.274 
     127   -1041.7637    84.126548   -957.63716    4093.2786    437074.82    1386.3579    393759.07    474502.86    442962.54   -19755.002    23807.274    38803.463 
     128   -1043.1989    85.843793   -957.35508    4176.8333    432476.13    1386.3579    392468.54    465970.08    438989.76   -14047.443     20827.18    41568.254 
     129   -1044.4495     87.39266    -957.0568    4252.1952    428037.25    1386.3579    390259.16     457264.9    436587.69   -8651.1379    18859.767    44735.268 
     130    -1045.465    88.711933   -956.75302     4316.386    423908.04    1386.3579    388390.51    449418.88    433914.74   -2330.2425    18496.035    48552.647 
     131   -1046.3014    89.850293   -956.45107    4371.7743    421379.69    1386.3579    387322.58    443725.48    433091.03    4927.9668    19081.183    51394.218 
     132   -1047.0053    90.840028   -956.16529    4419.9311    418501.28    1386.3579     385402.3    438765.52    431336.02    11152.441    20288.881    51739.124 
     133   -1047.5102    91.618591   -955.89158     4457.813    415831.21    1386.3579    382501.28    434844.96     430147.4    15125.279    21936.177    51870.777 
     134   -1047.6874     92.06044     -955.627    4479.3117    413711.58    1386.3579     378893.3    433040.12    429201.31    18036.645     24682.31    51542.229 
     135   -1047.4226    92.057088   -955.36556    4479.1486    411534.04    1386.3579    373533.85    432447.88    428620.39    18568.789    28059.736    50820.909 
     136   -1046.7257     91.61952   -955.10617    4457.8582    412648.62    1386.3579    371016.15    434024.31    432905.39    18555.683    32579.256    49116.408 
     137   -1045.7782     90.92534   -954.85288     4424.082    413962.83    1386.3579    368576.92    437139.39    436172.17    18708.974    36879.935    47513.268 
     138   -1044.8933    90.284498   -954.60883    4392.9011    415101.74    1386.3579    366460.64    441707.58    437137.01    18084.104     41405.05    45730.472 
     139   -1044.4106    90.020352   -954.39024    4380.0487    415853.79    1386.3579    363063.59    447746.81    436750.97    17021.479    44851.465    43397.634 
     140   -1044.5094    90.315415   -954.19395    4394.4054    417484.75    1386.3579    361536.49    454239.18    436678.59     16187.05    47700.458    41432.015 
     141   -1045.1274    91.101494   -954.02591     4432.653    417894.87    1386.3579    359918.67    459392.95       434373    15453.183    50896.701    40284.965 
     142    -1045.954    92.089528   -953.86449     4480.727    417378.64    1386.3579    358374.66    463468.29    430292.97    13682.671    53487.517    38384.492 
     143   -1046.6622    92.956734   -953.70544     4522.922    419779.31    1386.3579     361464.8    468817.01    429056.11    11800.963      56140.6     35692.13 
     144   -1047.0484    93.501679   -953.54676    4549.4369    422412.49    1386.3579    364988.33    473076.43    429172.73      10118.2    58366.102    34209.337 
     145   -1047.0955    93.702862    -953.3926    4559.2257    426339.43    1386.3579    368982.16     477662.6    432373.54     8348.337    60421.111    33280.394 
     146   -1046.9384    93.688341   -953.25002    4558.5192    430007.91    1386.3579    373182.68    481567.55    435273.51    6626.3465    62141.353    31922.606 
     147   -1046.7596     93.63723   -953.12239    4556.0323     433633.3    1386.3579     378466.7    484438.56    437994.65    4896.8281    63511.628    29904.378 
     148   -1046.7549    93.739418   -953.01544    4561.0044     436920.9    1386.3579    383970.97    485640.35     441151.4    3652.9128    63022.313    28407.406 
     149   -1047.0529    94.123929   -952.92896    4579.7133    438676.08    1386.3579    388688.66    483290.26    444049.32    2790.3065     62643.47     25990.45 
     150   -1047.6558    94.790948   -952.86489    4612.1678    438698.95    1386.3579    392002.04    478944.91    445149.89    1988.5379    61147.334    23292.429 
     151   -1048.4602    95.639401   -952.82082    4653.4503    439076.59    1386.3579    396371.05    473828.86    447029.84    690.74751    59674.463    21134.594 
     152     -1049.33    96.543002   -952.78696    4697.4161    437525.71    1386.3579    399094.65    466210.16    447272.32   -603.71574    57134.627    19143.398 
     153    -1050.194    97.425536    -952.7685    4740.3569     434626.7    1386.3579    398874.19    459291.12    445714.78    169.59175    52948.563    16042.361 
     154   -1051.0316    98.261652   -952.76992    4781.0391    431983.27    1386.3579    400726.37    452216.27    443007.16    1409.7417    47247.465     14681.43 
     155   -1051.8333    99.036403   -952.79686    4818.7356    430532.69    1386.3579    404339.99     446807.2    440450.88    2578.0238    41130.947    14445.783 
     156   -1052.5191    99.661837   -952.85725    4849.1668    427328.02    1386.3579    404289.33    440954.34    436740.39    5241.7634    34067.956    15355.258 
     157   -1052.8955    99.953126   -952.94236    4863.3399    424881.81    1386.3579    405322.17    435231.36    434091.89    8412.9012    27014.246    17922.295 
     158   -1052.7465    99.691838   -953.05464    4850.6266    423362.15    1386.3579    406147.37    430447.77    433491.32    11206.843    20202.844    19812.632 
     159   -1051.8899    98.706982    -953.1829    4802.7072    422596.17    1386.3579    407211.17    426468.12    434109.21    13094.559    14521.007    22696.341 
     160   -1050.2742    96.954236   -953.31995    4717.4252    422503.72    1386.3579    407210.24    422820.67    437480.26    14162.574     9826.021    25743.107 
     161   -1048.0242    94.560651   -953.46356    4600.9625    424945.09    1386.3579    408987.84    421749.75    444097.68     14995.85    5648.9157    28958.896 
     162   -1045.4699    91.865618   -953.60431    4469.8324    427360.32    1386.3579    410085.49    421996.33    449999.13    16206.168    3296.7085    30757.241 
     163    -1043.117    89.354357   -953.76263     4347.644    429029.31    1386.3579     409030.2    422479.82     455577.9    16607.257    3720.1566    32915.077 
     164   -1041.3911    87.456019   -953.93511     4255.278    429650.44    1386.3579    406657.09    423506.16    458788.06    15977.733    6703.9576    33380.689 
     165   -1040.5055    86.372404   -954.13305    4202.5534     428783.1    1386.3579    401187.16    424750.06    460412.06    15470.225    11490.757    32909.086 
     166    -1040.364    86.016596   -954.34739    4185.2412    425929.89    1386.3579    394723.88    424201.43    458864.36    14120.551    15395.974    31862.217 
     167   -1040.6782    86.112799   -954.56543    4189.9221    422754.47    1386.3579    389085.59    423114.57    456063.24     11935.08    20056.413    30997.136 
     168   -1041.1567    86.376383   -954.78034     4202.747    419922.73    1386.3579    384427.82    421313.43    454026.94    11522.909    24363.457    30741.878 
     169   -1041.6081    86.613232   -954.99482    4214.2712    416547.31    1386.3579    380467.29    418694.38    450480.25    10395.411    27410.544    30224.257 
     170    -1041.937     86.72582   -955.21117    4219.7493    412771.81    1386.3579    376635.44     415191.3    446488.69    10554.442    28079.932    30207.349 
     171   -1042.1211    86.686043    -955.4351    4217.8139    408819.48    1386.3579    373162.56    411366.03    441929.84    10872.128    27656.558    32205.638 
     172   -1042.1433    86.474409   -955.66884    4207.5166    404874.61    1386.3579    370914.38    407341.36     436368.1    11105.002    25802.669    34663.954 
     173   -1041.9417    86.037455   -955.90426    4186.2561    401231.07    1386.3579    370602.02    402142.64    430948.55    10815.711    22661.935    36539.582 
     174   -1041.4735    85.334425   -956.13904    4152.0493    398195.67    1386.3579    371432.47    397677.63    425476.91    10380.104    19296.196    38563.092 
     175   -1040.7649    84.390271   -956.37467    4106.1104    395228.75    1386.3579    372512.33    393800.64    419373.28     10245.59    16402.305    39641.597 
     176   -1039.8961    83.290761   -956.60536    4052.6124    392629.37    1386.3579    372922.41    389376.18    415589.53    8723.2476    14174.076    40589.593 
     177   -1038.9974    82.166047   -956.83132    3997.8881    390786.64    1386.3579    373165.27    386894.26    412300.39    7456.5927    12919.716    41017.923 
     178   -1038.2108    81.151845   -957.05897    3948.5408    388972.71    1386.3579    373668.53    383331.71     409917.9    4439.9783    13201.984    41285.776 
     179   -1037.6287    80.341613   -957.28712     3909.118    386154.89    1386.3579    373465.49     377901.6    407097.57   -205.54015    12722.003    40166.464 
     180   -1037.2805     79.76865   -957.51183    3881.2398     384213.8    1386.3579    373278.94    373421.19    405941.27   -6367.1295    13569.198    38243.787 
     181   -1037.1526    79.420961   -957.73163    3864.3226    382221.05    1386.3579     371969.2    370420.23    404273.71   -11838.619    14242.417    36648.009 
     182   -1037.2133    79.261498   -957.95178    3856.5637    379320.92    1386.3579    370019.19    366240.07     401703.5   -18479.031     13955.43    35175.581 
     183   -1037.3902    79.222358   -958.16784    3854.6593    376971.11    1386.3579    368623.95    361545.14    400744.23   -25252.555    14002.659    33741.215 
     184   -1037.6051    79.228386   -958.37668    3854.9526     374450.6    1386.3579    366716.03    356964.03    399671.73   -31907.662    14328.285    31212.205 
     185   -1037.8044    79.223799   -958.58058    3854.7295    372541.08    1386.3579    364374.47    353639.69    399609.09   -38797.523    15082.974    28914.995 
     186   -1037.9362     79.15543   -958.78077    3851.4029    371919.32    1386.3579    363416.18     351015.7    401326.09   -44911.671    16076.465    26477.457 
     187   -1037.9406    78.961118   -958.97945    3841.9484    372596.73    1386.3579    362052.77    349792.41    405945.01   -49132.795    15985.175    23786.904 
     188   -1037.7684    78.604348    -959.1641    3824.5893    374179.14    1386.3579     361045.8    349278.04    412213.57   -52455.435    14139.083     21340.41 
     189   -1037.4516    78.112842   -959.33877    3800.6745    375099.24    1386.3579    359547.78    348722.26    417027.67    -54541.55    12188.002    19241.203 
     190   -1037.0844    77.580425   -959.50401    3774.7691     375996.9    1386.3579     358586.1    348297.51    421107.07   -54851.498    10981.701    18166.717 
     191    -1036.829    77.167839   -959.66118    3754.6942    377850.15    1386.3579    359135.38    348719.44    425695.64   -54144.615    9662.9043    17116.247 
     192   -1036.8561    77.044277   -959.81185    3748.6822    379421.34    1386.3579     360211.8    350174.88    427877.36   -52176.492    8397.7786    17334.156 
     193   -1037.2892    77.322273   -959.96694    3762.2084     380340.3    1386.3579    361123.97    351891.12     428005.8   -50818.091    6747.8623     18103.33 
     194   -1038.1044    77.979796   -960.12464     3794.201    380678.94    1386.3579    362358.45    353754.85    425923.54   -48867.799    4853.3892    20756.026 
     195   -1039.1543    78.877202    -960.2771    3837.8653    380447.25    1386.3579    362052.34    357413.88    421875.51   -47043.231    3927.1675    24090.316 
     196   -1040.2767    79.847706   -960.42903    3885.0864    379394.42    1386.3579    362184.53    361016.72    414982.03   -45796.367     3280.122    27846.195 
     197   -1041.3122    80.738274   -960.57392    3928.4181    379932.89    1386.3579    363882.16    366067.96    409848.54   -44557.281     3516.498     31818.38 
     198   -1042.1764    81.462302   -960.71408    3963.6465    381181.08    1386.3579    365394.59    372070.78    406077.87   -43085.032     3429.911    34789.152 
     199   -1042.8486    81.999613   -960.84901      3989.79    381212.28    1386.3579    364764.01    377798.56    401074.26   -42489.881    3357.0992    37858.894 
     200   -1043.3575    82.377852   -960.97964    4008.1937    382503.93    1386.3579    363872.46    384961.48    398677.85   -41390.441    4587.1122    41583.059 
     201   -1043.7739    82.657955   -961.11593    4021.8224     385995.7    1386.3579    363645.36    395031.71    399310.02   -39709.895    6086.5308     45982.16 
     202    -1044.158    82.910653   -961.24739    4034.1178    388847.82    1386.3579    361933.21    404610.19    400000.07   -38923.229      7813.43    49599.403 
     203    -1044.566    83.181193   -961.38476    4047.2812    391551.51    1386.3579    359570.27    413141.04    401943.23   -37953.797    9267.0692    52082.261 
     204   -1044.9954    83.467184   -961.52818    4061.1965    394240.62    1386.3579    357764.65    419201.95    405755.24   -36097.471    10843.931    53995.952 
     205   -1045.3959    83.723505   -961.67244     4073.668    397506.04    1386.3579    356139.39    423743.85    412634.88   -34284.533    12257.627     54556.81 
     206   -1045.7148    83.898524   -961.81632    4082.1838    400040.01    1386.3579    354451.17    426182.96     419485.9    -32899.57    12598.464    53980.304 
     207   -1045.9169    83.957919   -961.95899    4085.0738    402633.88    1386.3579    354316.29    426472.49    427112.88   -30443.691    12703.808    53406.287 
     208   -1046.0135    83.911939   -962.10157    4082.8365    404171.49    1386.3579    354804.91    423099.98    434609.59   -28283.074     13624.51    51645.344 
     209   -1046.0515    83.804693   -962.24677    4077.6184    406474.68    1386.3579    357429.69    419528.02    442466.33    -25280.92    13379.535    50406.845 
     210   -1046.0704    83.673702    -962.3967    4071.2449     408182.1    1386.3579    359567.57    414894.69    450084.04   -22132.484     12253.02    48143.724 
     211    -1046.087    83.540425    -962.5466    4064.7601    409915.91    1386.3579    364148.92    410075.34    455523.48   -18136.322    11247.699    45485.028 
     212   -1046.1001     83.39989   -962.70017    4057.9222    410962.37    1386.3579    367200.32    406520.46    459166.35   -13759.731    10394.891    42511.844 
     213   -1046.1115      83.2578   -962.85367    4051.0086     411932.3    1386.3579    370285.31    403490.63    462020.97   -9561.4369    8966.3422    38171.803 
     214   -1046.1541    83.152115     -963.002    4045.8664    413444.48    1386.3579    374086.62    402295.63    463951.18   -5405.0305    8742.3495    33830.384 
     215   -1046.2978     83.14219   -963.15558    4045.3835    412837.14    1386.3579    375866.67    400238.16    462406.58   -515.21563    9323.0301    30694.328 
     216   -1046.5927    83.279778   -963.31288     4052.078    413672.72    1386.3579    378953.55    399896.84    462167.76    3864.4325    10682.329    26299.216 
     217   -1047.0352    83.560108   -963.47508    4065.7178    412761.34    1386.3579    378674.63    400934.24    458675.16    8495.9571    12712.661    22562.334 
     218   -1047.5703    83.926109   -963.64418     4083.526    411649.84    1386.3579    379086.04    403025.02    452838.45    13001.146    15843.513    19165.898 
     219   -1048.0874    84.268267   -963.81912    4100.1741    411324.09    1386.3579     379351.7    407330.21    447290.38    16974.053    20042.627    16918.055 
     220   -1048.4679    84.476804   -963.99105    4110.3207    410477.36    1386.3579    379020.86    411321.77    441089.44    19755.735    24243.502    15337.487 
     221   -1048.6592    84.494456   -964.16473    4111.1796    409334.95    1386.3579    377641.19    416689.54    433674.11    20950.051     27745.53    14042.768 
     222   -1048.6543    84.317247   -964.33706    4102.5573    408787.35    1386.3579    377026.24    422729.88    426605.91    21194.703    31863.044    13536.247 
     223   -1048.5005    83.988239   -964.51225     4086.549    408651.54    1386.3579    375823.83    428965.15    421165.64     20363.98    35549.466    15529.665 
     224   -1048.2608    83.570571   -964.69023    4066.2269    408278.85    1386.3579     373114.3    434605.39    417116.86    19278.546    38015.803    18167.479 
     225   -1048.0013    83.126869   -964.87443     4044.638    406988.34    1386.3579    369346.99    438775.73    412842.29    16807.253    38866.142    20493.261 
     226   -1047.7209    82.653544   -965.06732    4021.6078    405037.92    1386.3579    363399.92    443558.26    408155.58    13399.502      38606.7    23111.408 
     227    -1047.333    82.071061   -965.26197    3993.2664    403084.77    1386.3579    358626.75    445692.79    404934.77    9422.7301    37941.101    25908.126 
     228   -1046.7254    81.269006   -965.45638    3954.2415    401855.17    1386.3579    354817.93    447013.49    403734.11    4244.4971    35242.249    28821.518 
     229   -1045.7994    80.158619   -965.64075    3900.2142    400911.72    1386.3579    353180.95     445884.7    403669.51   -1014.8878    31242.782    30937.249 
     230   -1044.5668    78.755898   -965.81092    3831.9631    402417.16    1386.3579    354150.61    445330.59    407770.27   -4904.1142    27545.039    33756.946 
     231   -1043.1876    77.213671    -965.9739    3756.9243    402402.53    1386.3579     354762.8    441285.05    411159.72   -7784.7188    23144.727    34709.695 
     232   -1041.8907    75.762811   -966.12793    3686.3309    402118.65    1386.3579    356136.72    435189.83     415029.4   -9575.0233    19273.051    35262.525 
     233   -1040.8777    74.594658   -966.28306     3629.493    401864.72    1386.3579    358732.99    428496.93    418364.24   -9686.2328    15920.678    34407.843 
     234   -1040.2272    73.794454   -966.43272    3590.5581    399875.29    1386.3579    358724.45    420472.59    420428.83   -8200.6084    12655.347    32550.124 
     235   -1039.9429    73.367828   -966.57503    3569.8001    399365.74    1386.3579     360383.9    412680.22    425033.11   -5923.7499    10274.034    29536.356 
     236   -1040.0182    73.317681   -966.70053    3567.3602    397741.47    1386.3579    360757.61    404480.39    427986.41   -3645.1364    8080.1201    26061.591 
     237    -1040.506    73.680818   -966.82519     3585.029    392988.16    1386.3579    356482.74    395175.71    427306.03    139.91901     4488.641    23222.557 
     238   -1041.3892     74.44201   -966.94716    3622.0657    388255.51    1386.3579     351784.7    386717.96    426263.86    3886.9892    96.199343    22162.476 
     239   -1042.5606    75.492077   -967.06849     3673.158    382737.53    1386.3579    345435.34    379118.08    423659.17    6641.6107   -5965.8275    20602.649 
     240   -1043.8503    76.662059    -967.1882    3730.0849     376670.9    1386.3579    338564.64    371563.49    419884.56    10060.925   -11593.732    20401.642 
     241   -1045.0513    77.746606   -967.30468    3782.8548    371412.29    1386.3579    331276.26    366666.07    416294.53     12807.69   -16210.378    20781.551 
     242   -1045.9705    78.563475   -967.40704    3822.6006    367402.32    1386.3579    324932.24    362927.29    414347.42    14567.007   -20825.339    20457.383 
     243   -1046.5187    79.010204   -967.50851    3844.3367    364375.19    1386.3579    320180.92    360572.65    412372.01    14373.632   -24835.301    20424.317 
     244   -1046.6747    79.075104   -967.59959    3847.4945    362039.15    1386.3579    316168.18    359075.93    410873.32    14168.785   -27800.357     21481.57 
     245   -1046.4917    78.796517   -967.69519    3833.9395    361018.56    1386.3579    313551.07    358955.74    410548.88    13659.949   -30160.759    24045.923 
     246   -1046.0034    78.222218   -967.78114    3805.9963    362632.51    1386.3579    314206.39    361337.88    412353.25    12251.589   -31814.754    26576.013 
     247   -1045.2672     77.39943    -967.8678    3765.9626    364839.38    1386.3579    315509.48    365203.83    413804.85    9851.2477   -32810.805    29142.052 
     248   -1044.3246     76.37791   -967.94668    3716.2593    366966.44    1386.3579    317367.77     368365.9    415165.64    6899.5195     -33743.9    32367.556 
     249   -1043.2263    75.206098   -968.02018    3659.2434    369690.13    1386.3579    320883.56    370339.75    417847.08    3780.5708   -36059.759    36595.755 
     250   -1042.0155     73.93086   -968.08468    3597.1951    372890.44    1386.3579     322748.4     374640.8    421282.12    558.17824   -37951.591    38440.331 
     251   -1040.7667    72.630845   -968.13588    3533.9413    376208.27    1386.3579    324546.99    379641.31     424436.5   -3228.4037   -40102.999    40554.652 
     252   -1039.5912    71.412965   -968.17819    3474.6839    380701.57    1386.3579    328615.73    386089.46    427399.53   -7136.3382   -41554.135    42924.198 
     253   -1038.5896    70.378358   -968.21128    3424.3439    384325.76    1386.3579       332490    391743.63    428743.65   -10906.881    -42906.62    44056.876 
     254   -1037.8385    69.605852   -968.23262    3386.7566    387188.59    1386.3579    336393.45    396377.44    428794.88   -13201.218   -44765.813    45857.801 
     255   -1037.3713    69.125394   -968.24588    3363.3794    390955.87    1386.3579    340642.63    403788.16    428436.82    -13939.05   -44866.266    48017.075 
     256   -1037.1702    68.924043   -968.24617    3353.5824    395131.82    1386.3579    345268.44    410368.92     429758.1   -14390.016   -43453.543    49062.869 
     257   -1037.2049    68.979218   -968.22573     3356.267    399231.99    1386.3579    350000.82    416943.07    430752.08   -13185.169    -41901.36    50260.198 
     258   -1037.4892    69.299089   -968.19013    3371.8307    401148.29    1386.3579    352929.26     420512.2    430003.41   -10426.799   -40032.856    50992.493 
     259   -1038.0565    69.919366   -968.13715    3402.0111    402956.59    1386.3579     356029.8    423074.59    429765.37   -6693.3738   -37951.287    50438.791 
     260   -1038.9201    70.851645   -968.06846    3447.3722     404019.1    1386.3579    358160.03    424471.96    429425.32   -1133.2027   -35989.256    48914.497 
     261   -1040.0542     72.06958   -967.98458    3506.6323    403916.15    1386.3579    358756.77    423830.17    429161.51    5091.7587   -34862.021    46338.268 
     262   -1041.3847    73.499637   -967.88508    3576.2134    402112.18    1386.3579    357706.77     421556.4    427073.38    11286.552   -34515.888    43244.262 
     263    -1042.815    75.056559   -967.75844    3651.9674    399178.57    1386.3579    356143.48    416221.62    425170.62    16990.714   -34439.663    38567.548 
     264   -1044.2892     76.67198   -967.61718    3730.5676    395126.49    1386.3579    351798.74    410109.72    423471.02    21319.885   -34870.707    33311.741 
     265   -1045.7166    78.258891    -967.4577    3807.7807     391439.8    1386.3579    347667.17    403218.14     423434.1    24977.148   -35686.511    27328.875 
     266   -1046.9854     79.71064   -967.27481    3878.4173    387471.95    1386.3579    343944.51    395249.52    423221.82    26400.482   -36583.021    20932.511 
     267   -1048.0083    80.930615   -967.07764    3937.7766    385002.61    1386.3579    343888.74    387816.47    423302.61    26328.484   -36330.373    14978.972 
     268   -1048.6965    81.836852   -966.85962    3981.8707    382388.86    1386.3579    343669.44    379712.33    423784.79    24637.941   -35173.218     8675.951 
     269   -1048.9925    82.368627   -966.62386    4007.7448    380325.96    1386.3579    344525.94    373504.64     422947.3    22043.537   -33515.421    2462.0313 
     270    -1048.877     82.50673   -966.37025    4014.4644     379545.2    1386.3579    347358.05    369699.11    421578.45    18722.669   -31785.008   -2925.8406 
     271   -1048.3738    82.272971   -966.10082    4003.0906    379568.91    1386.3579    349950.05    368487.73    420268.93    14119.017   -29598.968   -7162.7888 
     272   -1047.5498    81.737042   -965.81279    3977.0143    380762.96    1386.3579    353642.04    369246.94    419399.92    8900.7094   -26938.287   -9844.9193 
     273   -1046.5394    81.034135   -965.50527    3942.8135    382401.71    1386.3579    357428.99    371315.76    418460.37    3244.8637   -23547.324    -11580.03 
     274   -1045.5502    80.371276   -965.17896    3910.5613    383579.29    1386.3579    359066.59    374998.88    416672.39   -3142.5668   -20949.749   -12562.346 
     275   -1044.8223    79.980188   -964.84212    3891.5325    385276.77    1386.3579    361379.14    379244.55    415206.63   -9758.2626   -18096.249   -12231.432 
     276   -1044.5495    80.057578   -964.49189     3895.298    386595.31    1386.3579    362695.38     382739.9    414350.67    -15864.46   -15541.299   -10757.636 
     277   -1044.8429    80.712323    -964.1306    3927.1554    387852.65    1386.3579    363047.97    386671.53    413838.46   -21158.994   -14134.337   -7670.7069 
     278   -1045.6699    81.912775   -963.75714    3985.5648    386684.91    1386.3579    361350.87    387388.84    411315.03   -27032.115   -12169.737   -4526.6025 
     279   -1046.8636    83.499535   -963.36405    4062.7706    385758.33    1386.3579    361673.24    386924.48    408677.28   -32341.534   -11388.157   -1807.4804 
     280   -1048.1923    85.241539   -962.95077    4147.5298    385282.85    1386.3579    363370.59    385953.95    406523.99   -36465.158   -11148.006    1343.0733 
     281   -1049.3956    86.882543   -962.51305    4227.3749    384858.49    1386.3579    365616.73     384713.3    404245.44   -39333.121   -11091.518    4192.1063 
     282   -1050.2745    88.222918   -962.05155    4292.5924    385786.14    1386.3579    371710.38    382991.69    402656.34   -40523.067   -10507.267    6902.8163 
     283   -1050.7446    89.170614   -961.57397    4338.7037    387335.25    1386.3579    379249.31    381147.31    401609.13   -40626.328   -8960.1357    8948.4721 
     284   -1050.8211    89.736978   -961.08408    4366.2608    388802.52    1386.3579    386683.36    378729.37    400994.83   -39042.892   -8194.4122    10985.579 
     285   -1050.6087    90.015429   -960.59331    4379.8092    391269.32    1386.3579    392626.07    378505.22    402676.66   -37176.045   -6704.4494     11961.36 
     286   -1050.2016    90.091039   -960.11051    4383.4881    395381.13    1386.3579     399134.8    380858.09     406150.5   -34080.288   -5151.7556    14707.498 
     287   -1049.6159    89.983137   -959.63279     4378.238     399289.6    1386.3579    403627.03    384092.49    410149.28   -30410.476   -3739.5231    18238.704 
     288   -1048.8467    89.681644   -959.16508    4363.5685    405334.04    1386.3579    407904.68    390709.31    417388.14   -28218.505    -2148.353    21276.569 
     289   -1047.8694    89.168165   -958.70119    4338.5845    410935.52    1386.3579    410834.95    397920.28    424051.33   -26670.463   -539.93537    24293.712 
     290   -1046.6793    88.431432   -958.24784    4302.7379    416347.12    1386.3579    411979.05    405205.12    431857.18   -26029.025    1202.3788     27038.27 
     291   -1045.3148    87.515064    -957.7997    4258.1509    421546.62    1386.3579    412704.12    412559.46    439376.27   -26155.392    2534.2366    30436.351 
     292   -1043.8928    86.536459    -957.3563    4210.5357    427148.93    1386.3579    413701.35    419992.62     447752.8   -25504.752    2391.4309    33449.513 
     293   -1042.5965    85.671471   -956.92505    4168.4487    431722.92    1386.3579     413373.5    426905.82    454889.43   -25727.808    3198.1896    34977.091 
     294   -1041.6171    85.108007   -956.50913    4141.0327    435685.34    1386.3579    412534.36    432743.66    461777.99   -24869.823    4486.5761    35438.273 
     295   -1041.0651    84.956155   -956.10891    4133.6441    438654.09    1386.3579    412329.94    437422.51    466209.81   -22939.753    4434.8287      35816.8 
     296   -1040.9206    85.194801    -955.7258    4145.2557    441192.65    1386.3579    411991.41    440222.01    471364.53   -20853.122    4443.0331    36354.695 
     297   -1041.0165    85.662161   -955.35435    4167.9957    442870.38    1386.3579    411523.69    441075.17    476012.29   -18019.958    3465.5202    36576.696 
     298   -1041.0898    86.104895   -954.98489    4189.5375    442524.39    1386.3579    410282.48    438398.24    478892.46   -15887.878    1736.7081    36634.103 
     299   -1040.9273    86.311275   -954.61607    4199.5791    443615.74    1386.3579    410380.78    437492.54    482973.91   -13024.837    315.17076    36033.971 
     300   -1040.4356    86.186227   -954.24938    4193.4948     444648.7    1386.3579    409596.37    437250.23    487099.48   -10559.492   -1795.9777    35575.948 
     301   -1039.6626    85.776907   -953.88566    4173.5788    443234.89    1386.3579    406140.88    435322.14    488241.66   -7760.2694   -4463.7676    34219.695 
     302   -1038.7567    85.217175   -953.53957    4146.3444    442654.15    1386.3579    403433.46    434862.66    489666.34   -4168.6133   -6939.6912     32329.09 
     303   -1037.8242    84.619403    -953.2048    4117.2591    441060.02    1386.3579    400946.12    433402.49    488831.47   -742.01743   -8457.9963    30088.878 
     304   -1036.9031    84.014492   -952.88859    4087.8264    439068.24    1386.3579    398913.47    431992.04    486299.19    2825.6573    -10084.54     27744.18 
     305    -1035.952    83.366631   -952.58539    4056.3039    437064.48    1386.3579    396559.97    431612.37    483021.09    6113.1566   -11052.471    24778.145 
     306   -1034.8999    82.610103   -952.28983    4019.4942    434929.29    1386.3579    392952.19     431010.7    480824.99    8934.6967   -11107.063    20585.215 
     307   -1033.6904    81.698458   -951.99194     3975.137    431451.63    1386.3579    388797.16    429331.29    476226.43     11211.54   -9376.3636    15914.373 
     308   -1032.4044    80.705722    -951.6987    3926.8342    430509.35    1386.3579    388051.52    429977.29    473499.23    13072.452   -7090.0675    11610.736 
     309   -1031.2225    79.811504     -951.411    3883.3249    429184.45    1386.3579    387029.86    430664.37    469859.14    15033.517   -3983.8692    7003.7411 
     310   -1030.3486    79.219692    -951.1289    3854.5296    427380.05    1386.3579    386276.12    430398.12    465465.92    17063.596   -17.218525    1941.6422 
     311   -1029.9421     79.07771   -950.86436    3847.6213    425588.56    1386.3579    386225.94    429515.59    461024.15    16872.508    3393.9343   -3384.8216 
     312   -1029.9973    79.387801   -950.60951    3862.7092    423935.54    1386.3579    386067.85    429024.94    456713.82    17432.689    7754.6152   -8675.8658 
     313   -1030.3939    80.042581   -950.35132    3894.5683    421128.93    1386.3579    384525.02    426861.49    452000.29    17508.485     11402.02   -12924.081 
     314   -1031.0379    80.950006   -950.08787    3938.7201     419176.8    1386.3579    384804.17    423568.12    449158.11    17269.679    12237.517   -15971.671 
     315   -1031.8992    82.072288   -949.82689    3993.3261    416949.96    1386.3579    385839.34    419394.08    445616.47    16876.956    11815.471   -18851.379 
     316   -1032.9639    83.405987   -949.55795    4058.2189    413955.54    1386.3579    384295.81    415369.07    442201.75     15702.18    11561.756   -20402.548 
     317   -1034.2795    84.974554   -949.30495    4134.5394    411081.47    1386.3579     383954.2    410905.92    438384.29    13764.004    10660.637   -21888.602 
     318   -1035.7907    86.732283   -949.05846    4220.0638    408872.45    1386.3579    384716.84    406201.39     435699.1    11705.019     8842.658   -23518.307 
     319    -1037.346    88.526312   -948.81974    4307.3544     406035.4    1386.3579    385620.54    401246.49    431239.19    8178.5012    6493.7303   -22743.808 
     320   -1038.7717    90.179056    -948.5926    4387.7707    403354.07    1386.3579    387570.53    395421.89     427069.8    2771.2654    5169.2516   -23218.314 
     321   -1039.9251    91.557808   -948.36726    4454.8555    401364.74    1386.3579    391183.56    389288.35    423622.32   -3529.2338    3571.4783   -23385.572 
     322   -1040.7557    92.601226   -948.15452    4505.6243    399932.88    1386.3579    393209.17    385408.39    421181.06   -10037.428    2481.9773   -23180.323 
     323   -1041.2372     93.27695   -947.96021    4538.5025     399690.7    1386.3579    397223.99    381119.67    420728.45   -16119.836    2475.5956   -23437.758 
     324   -1041.3084    93.515274   -947.79316    4550.0984    399815.33    1386.3579    400425.04     376887.8    422133.15   -23023.951    2068.2483   -24447.791 
     325   -1040.8394    93.195984   -947.64338    4534.5629    401763.01    1386.3579    407130.65     374978.8    423179.56   -30482.736    1653.1636   -24108.365 
     326   -1039.7255     92.22428   -947.50123    4487.2835    404331.92    1386.3579    412984.28    375183.82    424827.66   -37632.449    1119.6041   -22840.757 
     327   -1038.0114    90.646358     -947.365    4410.5078    408559.41    1386.3579    418111.24    378246.69    429320.31   -44169.809   -158.61921   -19888.472 
     328   -1035.9381    88.710218   -947.22791    4316.3026    412817.32    1386.3579    422695.34    381508.75    434247.88     -48755.6   -833.77458   -16585.867 
     329    -1033.928    86.821175   -947.10678    4224.3889    417167.57    1386.3579    425667.97    384845.23    440989.52   -50608.393   -1578.7572   -11134.059 
     330    -1032.366    85.361329   -947.00465    4153.3584    420291.14    1386.3579    426022.83    387521.93    447328.67   -50134.762    -1854.984   -3652.1433 
     331   -1031.4626    84.535494   -946.92714    4113.1764    422439.19    1386.3579    423609.29    390945.59    452762.68   -47824.702   -1822.0353    4005.8672 
     332   -1031.1734    84.314606   -946.85877    4102.4288     423306.7    1386.3579    419364.05    393031.31    457524.74   -43080.654   -1679.3913    13545.499 
     333   -1031.3084    84.513045   -946.79537    4112.0841    423606.51    1386.3579    413342.58    394552.17    462924.77   -36444.323   -2221.6355    22474.958 
     334   -1031.6503     84.92001   -946.73025    4131.8855    423043.75    1386.3579    405918.41    396556.43    466656.42   -29276.145   -2414.0212    30849.363 
     335    -1032.044    85.378405   -946.66562    4154.1892    421893.74    1386.3579    398713.81    397649.05    469318.36   -21253.615    -1669.793    37475.717 
     336   -1032.4139    85.816955   -946.59695    4175.5274    421629.18    1386.3579    392877.05    399228.82    472781.68   -13078.173     315.7825    41511.902 
     337   -1032.7575    86.224775   -946.53268    4195.3703    420354.12    1386.3579    389374.09    399309.71    472378.55   -4389.5043    589.14431    43524.108 
     338   -1033.0783    86.607385    -946.4709    4213.9867    419435.29    1386.3579    389004.79    400028.72    469272.35    2728.9649    483.88313    43545.272 
     339   -1033.3841    86.961721    -946.4224    4231.2273    417991.43    1386.3579    389408.91    399758.66    464806.73    10519.889    979.91348    42091.887 
     340    -1033.624    87.250411   -946.37364    4245.2739    415792.42    1386.3579    389834.86    400207.73    457334.68    19648.358    121.79287    38564.058 
     341   -1033.7582    87.421913   -946.33633    4253.6186    415535.11    1386.3579    393628.65    404049.91    448926.75    29692.018   -1458.1198    33953.832 
     342   -1033.7471    87.447801   -946.29927    4254.8782     416105.1    1386.3579    397615.08    409857.02    440843.19    38938.748   -4453.7768    30601.586 
     343   -1033.5929    87.329505   -946.26339    4249.1223    414566.75    1386.3579    399567.78    412638.54    431493.94    48239.498   -7729.7487    28929.299 
     344   -1033.3531    87.119153   -946.23398    4238.8874    414377.54    1386.3579    402575.85     417650.1    422906.65    56280.814   -11444.118    26085.829 
     345    -1033.124    86.916317   -946.20765    4229.0182    414545.42    1386.3579    402877.67    424582.17    416176.42    65123.805   -13467.951    22656.206 
     346   -1033.0185    86.828488   -946.19001    4224.7448     412461.4    1386.3579    399983.28     428214.7    409186.22    71251.204   -14441.226      19980.9 
     347   -1033.1071    86.928815   -946.17829    4229.6263    410257.56    1386.3579    395590.47    431209.29    403972.93    76828.341   -14757.769    16235.354 
     348   -1033.4098    87.228423   -946.18139    4244.2041    407800.33    1386.3579    391139.12    431552.94    400708.93    80409.806   -12468.489     12494.61 
     349   -1033.8446    87.655265   -946.18936    4264.9726    405421.78    1386.3579    387400.66     430504.9    398359.77    81878.598   -9673.4542    8277.1349 
     350   -1034.2913    88.088009    -946.2033    4286.0283    402226.44    1386.3579    382624.01    427191.24    396864.08     81940.78    -5517.595    4496.0174 
     351   -1034.6287    88.408335   -946.22036    4301.6141    399059.75    1386.3579    377553.53    423345.32    396280.39    80366.521   -66.687067    1221.4675 
     352   -1034.7594     88.51437   -946.24507    4306.7734    396977.96    1386.3579    374219.33    420767.56       395947    77550.272    6948.1298   -511.36629 
     353   -1034.6123    88.340025   -946.27232    4298.2904    395192.16    1386.3579    371561.35    419246.94    394768.18    73439.617     14119.93     -1558.23 
     354   -1034.1745     87.87075   -946.30374    4275.4573    394250.42    1386.3579    370384.87    418013.32    394353.07    67240.143    20301.154   -1640.5692 
     355   -1033.4797    87.143603   -946.33607    4240.0771    393264.84    1386.3579    370447.19    417055.01    392292.33    59379.798    24997.564   -1231.4992 
     356   -1032.6148    86.240148   -946.37466    4196.1183    393015.75    1386.3579    372139.67    417737.42    389170.16     49901.68    28471.155   -1450.8444 
     357   -1031.6788      85.2653   -946.41355     4148.686    393653.14    1386.3579    373977.33    419809.82    387172.27    39996.559      30738.4   -4540.0843 
     358    -1030.758    84.298676   -946.45937    4101.6537    394610.75    1386.3579    377884.82    422453.64     383493.8     29758.54     30869.26   -7968.4293 
     359   -1029.9064     83.40367   -946.50269    4058.1061    396141.92    1386.3579    382045.74    425384.66    380995.36    19196.167    29314.707   -12253.108 
     360    -1029.226    82.685489   -946.54048    4023.1621    395853.96    1386.3579     383670.5    427959.07     375932.3    9781.0214    27318.807   -17532.319 
     361   -1028.8882    82.312492   -946.57572    4005.0135    395587.91    1386.3579    385475.27    429476.01    371812.44    2567.4322    25701.485   -23132.709 
     362   -1029.0998    82.485407   -946.61438    4013.4269    395210.89    1386.3579    386327.95     429099.2    370205.51   -3371.5966    24369.172   -27709.843 
     363   -1029.9828    83.320533   -946.66231     4054.061    394069.62    1386.3579    384425.54    426980.11    370803.22   -7174.7537    22685.727   -32848.238 
     364    -1031.481    84.755216    -946.7258    4123.8672    391491.49    1386.3579    381015.49    420946.32    372512.65   -8578.0692    20938.622    -37795.43 
     365   -1033.3542    86.559405   -946.79476    4211.6522       388970    1386.3579    377361.94    412846.52    376701.54   -7909.1141    20181.777   -41764.968 
     366   -1035.2932    88.429338   -946.86385     4302.636    387987.88    1386.3579    373326.24     406456.1    384181.29   -5463.1826    19128.598   -44895.363 
     367   -1037.0546    90.120083   -946.93448    4384.9013    386938.24    1386.3579    368781.72    399672.66    392360.34   -2471.0095    17746.935   -47042.323 
     368   -1038.5287    91.521634   -947.00704    4453.0954     384349.9    1386.3579    362157.71    391280.18    399611.81    1213.0378     14625.95   -48110.366 
     369   -1039.7289    92.640352    -947.0885     4507.528    382557.62    1386.3579    355603.15    385495.98    406573.74    4038.4635    10819.378   -48922.341 
     370   -1040.7219    93.536067   -947.18584    4551.1101    381926.94    1386.3579    350415.58    381559.56    413805.68    7440.5041    6438.5539   -48679.412 
     371   -1041.5674    94.266474   -947.30094    4586.6489    382018.96    1386.3579    346634.48    379339.58    420082.83    11309.759    1268.3432   -47748.204 
     372   -1042.3052    94.870218   -947.43495    4616.0248    384506.09    1386.3579    346213.73    381110.29    426194.24     13434.73   -3477.4499   -46656.776 
     373   -1042.9577    95.366162   -947.59156    4640.1556    386612.19    1386.3579    345692.35    383722.73     430421.5    15775.871   -8219.0524   -45414.227 
     374   -1043.4978    95.725026   -947.77282    4657.6165    388158.58    1386.3579    344470.49    386599.17    433406.08    18837.614   -11055.696   -43191.663 
     375   -1043.8182    95.836054   -947.98211    4663.0187     391504.2    1386.3579    345438.42    391072.67    438001.51    19837.898   -13379.508   -41247.516 
     376   -1043.7307    95.524098    -948.2066    4647.8402    395351.38    1386.3579    348221.59    395569.84     442262.7    22173.334   -13039.109   -38871.288 
     377   -1043.0793     94.63577   -948.44352    4604.6175    399286.01    1386.3579    351987.24    400744.34    445126.45    24275.599   -12717.657   -36970.483 
     378   -1041.8333    93.151912   -948.68138    4532.4186     404909.2    1386.3579    355365.21    408851.28    450511.09    25434.231   -10281.497   -35022.954 
     379   -1040.1908    91.278539   -948.91222    4441.2673    411588.58    1386.3579    361280.72    417774.57    455710.44    27528.838   -6413.1637   -33676.047 
     380   -1038.6007    89.458148   -949.14251     4352.694    416361.09    1386.3579     364681.2    426149.32    458252.74     30209.99   -880.30684   -32693.257 
     381   -1037.6018    88.208089   -949.39367    4291.8709    419674.36    1386.3579     369226.8    433211.01    456585.27     33203.75    6640.3781   -33257.585 
     382   -1037.5347    87.868021    -949.6667    4275.3245    422842.29    1386.3579    374722.01    440646.56     453158.3    36291.798    15477.259   -32361.333 
     383    -1038.432    88.464049   -949.96793    4304.3249     423434.7    1386.3579    378073.44    445917.96    446312.69    39004.752    24705.478   -31181.808 
     384   -1040.0483    89.762635   -950.28565    4367.5092    422912.45    1386.3579     381777.7    449134.94    437824.73    40469.273    33410.863   -30103.279 
     385   -1042.0709    91.466534   -950.60441    4450.4145    420970.96    1386.3579    384190.26    450366.05    428356.56    41134.285    39880.779   -28767.658 
     386   -1044.2921     93.34469   -950.94736    4541.7984    417568.57    1386.3579    385652.12    447822.11    419231.47     40135.03     45375.96   -26245.072 
     387   -1046.4799    95.164772   -951.31508    4630.3567    413953.94    1386.3579     385267.5    444020.45    412573.86    37947.024     49554.16   -24911.103 
     388   -1048.3783     96.67773   -951.70057    4703.9715    410400.56    1386.3579    384869.09    439292.29    407040.28    35658.462    50625.121   -24082.821 
     389   -1049.8054    97.695351   -952.11007    4753.4851    406693.47    1386.3579    384680.52    432026.74    403373.14    33067.093    49992.752   -24103.875 
     390   -1050.6299    98.091278   -952.53866    4772.7494    405178.89    1386.3579    386159.47    427847.69    401529.51    29900.419    46335.998   -24475.412 
     391   -1050.7951    97.813215   -952.98187    4759.2199     404206.3    1386.3579    386674.36    424128.52    401816.03    27604.574    41467.233   -25177.771 
     392   -1050.3312     96.89061   -953.44058    4714.3295    402226.65    1386.3579    385789.71    419913.77    400976.49    23582.868    35763.554   -26144.519 
     393   -1049.3336    95.429363   -953.90423    4643.2307    402640.23    1386.3579    386774.74    417353.31    403792.63    19757.552    28617.854    -28258.25 
     394   -1047.9698    93.595011   -954.37482    4553.9781    403440.18    1386.3579    388686.64    415190.31    406443.57    15064.158     22326.37   -31309.887 
     395    -1046.428    91.585653   -954.84237    4456.2103    406500.18    1386.3579    393336.46    415578.57     410585.5    10186.239    17716.197   -33869.087 
     396   -1044.9076    89.600528    -955.3071    4359.6217    408104.15    1386.3579    396592.12    414552.89    413167.43    4631.2564    14367.563   -36205.365 
     397   -1043.5778      87.8153   -955.76253    4272.7593    409673.84    1386.3579    400008.18    412674.55    416338.79   -1443.0879    12016.026   -36207.285 
     398   -1042.5944    86.384139   -956.21023    4203.1244    412151.32    1386.3579    406090.54    410382.97    419980.44   -6819.8982    12033.897   -35279.438 
     399   -1042.0765    85.428271   -956.64826    4156.6155    413024.33    1386.3579    412020.47    406333.25    420719.27   -12544.054     12926.09   -33677.739 
     400   -1042.0968    85.017343   -957.07945    4136.6213    413673.31    1386.3579    418884.64    400372.29       421763   -17613.142    15042.942   -30620.557 
     401   -1042.6544    85.149936   -957.50446    4143.0728    413611.19    1386.3579    425078.62    393016.86     422738.1   -22285.282    16615.718   -25118.652 
     402   -1043.6652    85.734734   -957.93047    4171.5268    413046.57    1386.3579    430860.14    386653.92    421625.64   -26196.506    17323.394   -18954.252 
     403   -1044.9484    86.601236   -958.34713    4213.6876    411946.15    1386.3579    435172.78    380828.46    419837.21   -29146.804     16838.84     -12764.1 
     404   -1046.2915    87.527273   -958.76418     4258.745    409720.92    1386.3579    438664.77     374346.8    416151.19   -30036.871    15169.894   -5054.4177 
     405   -1047.4129    88.238051   -959.17486    4293.3287    407978.81    1386.3579    441562.71    368738.99    413634.73   -30730.709     11749.65    3255.0785 
     406   -1048.0316    88.462612   -959.56898     4304.255    406817.03    1386.3579     443467.1    364246.05    412737.96   -31649.932    7222.1706    10836.696 
     407    -1047.978    88.036123   -959.94188    4283.5037    407664.71    1386.3579    446055.44    362911.16    414027.53   -32540.246    1800.0994    17547.568 
     408   -1047.2609    86.977211   -960.28373    4231.9811     408681.4    1386.3579    447986.91    362358.63    415698.68   -34275.269    -4437.589    23008.899 
     409   -1046.1139    85.513433   -960.60049    4160.7592     408495.3    1386.3579    448218.64    361253.15    416014.12   -36414.066   -10407.979    27195.757 
     410   -1044.8884    83.987353    -960.9011    4086.5059    408846.42    1386.3579    447700.36    361105.86    417733.03   -38337.708   -15649.609    29113.264 
     411   -1043.8863    82.694106   -961.19224    4023.5814    409815.32    1386.3579    446461.79    362989.88    419994.31   -39958.113    -19610.89    30218.744 
     412   -1043.2388    81.766373   -961.47246    3978.4414    410207.56    1386.3579    443685.56    364335.42    422601.71   -42795.924   -21903.605    30442.865 
     413   -1042.9241    81.181718    -961.7424    3949.9943    410210.48    1386.3579    439395.26    366459.28    424776.88   -44587.215   -22564.257    29460.933 
     414    -1042.828    80.836924   -961.99108     3933.218    408414.07    1386.3579    433282.33    366479.86    425480.01   -46000.879   -21442.628    28018.782 
     415   -1042.8279    80.605116   -962.22282    3921.9391    407147.58    1386.3579    427051.56    368246.22    426144.95   -46937.799   -19780.115    25824.493 
     416    -1042.823    80.386199   -962.43682    3911.2874    406855.65    1386.3579    420565.52    372419.73    427581.71   -47076.921   -18658.925    24308.418 
     417   -1042.7443    80.112509   -962.63179    3897.9707    406599.25    1386.3579    413748.21    377820.91    428228.63   -47684.688   -17156.461    23954.404 
     418   -1042.5507    79.736922   -962.81382    3879.6961    406394.36    1386.3579    406971.36    383113.55    429098.17   -47659.677   -14560.815    23674.806 
     419   -1042.2245    79.253257   -962.97121    3856.1628    406313.77    1386.3579    400867.96    387854.08    430219.27   -47658.838   -11951.103    23002.939 
     420   -1041.8455    78.732013   -963.11344     3830.801    406555.46    1386.3579    395955.73    392327.61    431383.04   -47888.241   -8590.7724    22911.955 
     421   -1041.5535    78.315174   -963.23834    3810.5192    406030.11    1386.3579     391477.4    395382.86    431230.08   -48440.091   -4820.1005    23016.527 
     422   -1041.5096    78.153521   -963.35603    3802.6538    406520.55    1386.3579    389899.65    398387.55    431274.46    -48038.64    -73.52319    22194.416 
     423   -1041.8084    78.340214   -963.46814    3811.7375    405640.61    1386.3579    389322.41    397814.21    429785.22   -48879.918     5296.344    21157.245 
     424   -1042.4262    78.846308   -963.57987    3836.3622    404547.01    1386.3579     390477.1    396695.54    426468.39   -49881.112    10841.472    20432.792 
     425   -1043.2176     79.53738   -963.68025    3869.9871    402936.87    1386.3579    393331.16    393304.09    422175.37   -51094.638    15701.016    18626.742 
     426   -1044.0322    80.261266   -963.77093    3905.2087    401039.57    1386.3579    395866.16    389823.85    417428.69   -52984.253    19860.248    15608.513 
     427   -1044.7561    80.906664   -963.84939    3936.6113    400943.25    1386.3579    399900.74    388917.19     414011.8   -55781.019    23578.691    12461.533 
     428   -1045.3492    81.430105   -963.91907    3962.0799    400794.83    1386.3579    404186.72     386889.9    411307.88   -59476.647    25884.314    9315.5174 
     429   -1045.8248    81.841845   -963.98296    3982.1136    401323.52    1386.3579     409428.1    385602.47    408939.97    -62988.58    26749.486    6384.6509 
     430   -1046.2277    82.184702     -964.043    3998.7958    402377.02    1386.3579    414791.11    384760.43    407579.52   -68366.331    27661.352     2677.608 
     431   -1046.5991    82.498184   -964.10088    4014.0486    404619.85    1386.3579    421938.15    384304.66    407616.74   -73226.852    28514.343   -1041.8995 
     432   -1046.9521    82.796398    -964.1557    4028.5586     407573.4    1386.3579     430020.6    384561.97    408137.64   -77308.906     28491.21   -4833.0087 
     433   -1047.2927    83.085651     -964.207    4042.6325    410937.39    1386.3579    438649.31    384760.03    409402.83   -81630.585    27500.416   -8688.3476 
     434    -1047.647    83.389176   -964.25786    4057.4009    413476.14    1386.3579    445880.14    384040.53    410507.75   -84953.552    26260.288   -12021.673 
     435   -1048.0454    83.736709   -964.30871    4074.3105    415915.16    1386.3579    453158.76    382563.45    412023.26   -87130.549     24389.45   -14484.619 
     436    -1048.504    84.145604   -964.35836    4094.2058    418373.33    1386.3579    459855.32    380956.78    414307.88   -88347.352    21403.594   -16535.991 
     437   -1049.0035    84.587944   -964.41553    4115.7284    420519.13    1386.3579    466700.97    378001.86    416854.57   -87971.905    18207.459   -17317.329 
     438   -1049.4343    84.957095   -964.47724    4133.6899    421890.46    1386.3579    472246.38    373906.32    419518.69   -86639.655    14553.595   -16255.059 
     439   -1049.6264    85.088631   -964.53777    4140.0899    422456.93    1386.3579     476342.1    370211.85    420816.84   -84362.672     9733.033    -13863.96 
     440   -1049.4529     84.86203    -964.5909    4129.0644    424499.24    1386.3579    481926.59    367790.92    423780.22   -83091.044    5117.6757   -10282.825 
     441   -1048.9104     84.27362   -964.63678    4100.4346    424864.64    1386.3579    487008.75    363319.31    424265.87   -79849.291   -18.457794   -6258.9752 
     442   -1048.0893    83.404458   -964.68486    4058.1444    425472.08    1386.3579    491471.07    359417.43    425527.75    -75742.89   -3438.0601   -2760.0032 
     443    -1047.093    82.364219   -964.72878    4007.5304    423887.06    1386.3579     495211.5    352939.07     423510.6   -71718.997   -6368.7827    274.20613 
     444   -1046.0266    81.251405   -964.77521    3953.3851    422717.61    1386.3579    499421.49    345839.88    422891.46   -67585.775   -8844.7361    2610.8244 
     445   -1044.9509    80.132298   -964.81865    3898.9336    420377.65    1386.3579    502380.46    338367.49    420385.01   -63486.772    -10535.61    5593.8902 
     446    -1043.907    79.052266   -964.85478    3846.3833    418602.24    1386.3579    507097.45    331423.47    417285.78   -58581.105   -12344.253    8437.4038 
     447    -1042.962    78.080152   -964.88182    3799.0839    417314.07    1386.3579    510366.94    325814.38     415760.9   -54306.135   -14453.907      11563.3 
     448    -1042.212    77.309073   -964.90288    3761.5661    414594.87    1386.3579    511236.91    321074.37    411473.32   -51058.741   -16244.192    15314.414 
     449   -1041.7292    76.805688   -964.92356    3737.0734       413630    1386.3579    513343.09     317901.8    409645.11   -47096.037   -17435.974    20380.434 
     450   -1041.4995     76.56163   -964.93785    3725.1984    411644.16    1386.3579    512613.59    315553.81    406765.07   -43357.239   -17066.133    25065.807 
     451    -1041.456    76.505295   -964.95073    3722.4574    408404.11    1386.3579    508685.17    313436.36    403090.79    -39778.46    -16179.02    29392.374 
     452   -1041.4865    76.533741   -964.95274    3723.8414    406285.79    1386.3579     503136.9    313383.77    402336.69   -36147.051   -14918.821    33029.406 
     453    -1041.507    76.568498   -964.93854    3725.5326       403333    1386.3579    496415.17    314031.32    399552.51   -32849.507   -12732.748    33989.645 
     454   -1041.5008    76.582293   -964.91855    3726.2038    401727.72    1386.3579    489416.21    317822.23    397944.71   -30787.121   -9560.6348    34383.747 
     455   -1041.4663    76.576297   -964.89003     3725.912    399789.79    1386.3579    481983.82       322866    394519.55   -30144.454   -6717.9833    33902.626 
     456   -1041.4257    76.574609   -964.85113    3725.8299    399306.35    1386.3579    475473.29    328808.99    393636.77   -29269.492   -2099.5867    32196.613 
     457   -1041.4382    76.637045   -964.80115    3728.8678     398268.2    1386.3579    468061.77    334518.34    392224.49    -28697.58      2292.96    29146.536 
     458   -1041.6114    76.867131   -964.74425    3740.0629    397648.49    1386.3579    459169.77     342035.4     391740.3   -29362.543     5668.901    25379.988 
     459   -1042.0524    77.369841   -964.68251    3764.5229    397759.56    1386.3579    450883.54    349983.59    392411.53   -29717.777    8162.3476    21132.089 
     460   -1042.8173    78.194582   -964.62272    3804.6516    398545.65    1386.3579    443143.18    358925.96    393567.81   -31213.494    10278.017     16662.98 
     461   -1043.8554    79.295364   -964.56003    3858.2115    398078.25    1386.3579    433288.05     367092.6    393854.11    -34267.96    13021.038    13355.893 
     462   -1045.0405    80.546823   -964.49372    3919.1028    397771.94    1386.3579    424462.68    375840.36    393012.79   -36401.764    15898.018    10412.153 
     463   -1046.2244    81.799327   -964.42504    3980.0449    397993.15    1386.3579    415835.22    384759.31    393384.92   -39023.915    17498.953    8992.0237 
[...]
    9888   -1042.3802    74.794924   -967.58532    3639.2372     416649.4    1386.3579    417472.77    419438.91    413036.52    6731.2445   -12038.456   -21009.873 
    9889   -1042.0761    74.590269   -967.48579    3629.2795     418222.5    1386.3579     419372.7    421793.16    413501.65     5789.511    -11404.97   -21541.392 
    9890   -1042.3453    74.965262   -967.38007    3647.5252    418934.57    1386.3579    420514.55    422864.06     413425.1    3530.4141   -10262.661    -21922.52 
    9891   -1043.1306    75.866455   -967.26415    3691.3738    416730.19    1386.3579    417718.05     420424.3    412048.23    814.50855   -9196.4546   -23944.564 
    9892   -1044.3258    77.185671   -967.14017    3755.5619    413841.96    1386.3579     414185.4    417021.74    410318.74   -2019.7185   -7707.4345   -27150.888 
    9893   -1045.7797    78.770659     -967.009    3832.6814    410483.31    1386.3579    408785.08    412843.84    409821.01   -5604.0815   -6457.3288   -29452.938 
    9894   -1047.2726    80.404738   -966.86786    3912.1894    406708.24    1386.3579    403489.37    407141.58    409493.77   -9775.7491   -6050.3924   -31772.054 
    9895   -1048.5637    81.852456   -966.71126    3982.6299    402745.81    1386.3579    397135.21    399704.14    411398.07   -13754.277   -5212.0168   -34880.914 
    9896   -1049.4564     82.90965   -966.54673     4034.069    399340.55    1386.3579    392939.62    392107.45    412974.58   -16416.182   -4017.0535   -36675.857 
    9897   -1049.8142    83.447575   -966.36658    4060.2424    396426.81    1386.3579    390684.93     384070.2    414525.31   -19436.248   -2637.5919   -39315.896 
    9898   -1049.6323    83.453879    -966.1784    4060.5491    395230.75    1386.3579    389525.96    378893.27    417273.02    -21322.73   -1738.0352   -42001.396 
    9899   -1048.9988    83.014081   -965.98475    4039.1502    395054.22    1386.3579    390984.94    374074.32    420103.39    -22963.92    -1579.464   -42493.098 
    9900    -1048.078    82.296533    -965.7815     4004.237    396553.66    1386.3579    395532.38    370616.48    423512.12    -23624.58   -450.39475   -42937.983 
    9901   -1047.0908     81.50562   -965.58513    3965.7542    398659.73    1386.3579    401937.79     367523.3    426518.11   -22856.067   -417.93505   -43476.725 
    9902   -1046.2007    80.818651   -965.38207    3932.3289     400394.5    1386.3579    407641.76    365877.36     427664.4   -21114.308   -51.854499   -43325.549 
    9903   -1045.5978    80.425001   -965.17283    3913.1754    400489.18    1386.3579    412722.05    362591.99     426153.5   -17935.003    1068.5991   -41746.576 
    9904   -1045.4672    80.505195     -964.962    3917.0773    401022.56    1386.3579    417936.61    361246.49    423884.57   -14030.125    874.47139   -39111.193 
    9905   -1045.9173    81.161339   -964.75593    3949.0028    400004.18    1386.3579    420116.66    359310.34    420585.54   -8599.9581    114.36971   -34642.912 
    9906    -1046.922    82.369925   -964.55209     4007.808    398474.26    1386.3579    418309.15    357664.84    419448.79   -2586.3278   -605.73199   -28329.661 
    9907   -1048.2775    83.920519   -964.35698     4083.254    396328.79    1386.3579    413985.28    357056.43    417944.67    4046.9416   -1473.8386   -19907.078 
    9908   -1049.5853    85.431282   -964.15402     4156.762    396202.62    1386.3579    410084.65    359271.06    419252.15      12867.7   -2016.8444   -12171.263 
    9909   -1050.4178    86.476688   -963.94108    4207.6275    397557.91    1386.3579    405146.79    364628.72    422898.21    22817.191   -4978.7437   -4586.7639 
    9910   -1050.4513    86.733887   -963.71745    4220.1418    399318.69    1386.3579    399753.65    370604.54    427597.88     33081.23   -7180.9438    2511.6356 
    9911   -1049.5621    86.081796   -963.48032    4188.4135    404303.55    1386.3579    398897.93    378204.48    435808.25    43764.478   -7187.9036    8730.7415 
    9912   -1047.8694     84.63484   -963.23452    4118.0101    410129.93    1386.3579    400183.44    386272.23    443934.12    53999.788   -7320.1085    12929.311 
    9913   -1045.6912    82.705459   -962.98572    4024.1338    417920.53    1386.3579    404455.55     395138.5    454167.53    60915.799   -7837.3806    14760.447 
    9914   -1043.4507    80.709404   -962.74125    3927.0133    426403.33    1386.3579    410471.38    404491.43    464247.19    65792.646   -8622.7344    13432.608 
    9915   -1041.5369     79.03134   -962.50559    3845.3651    433279.57    1386.3579    415921.54    412659.83    471257.35    68679.246   -8672.4852    11051.937 
    9916   -1040.2087    77.920683   -962.28806    3791.3248     439334.5    1386.3579    422184.26    419437.31    476381.92    69337.742    -10261.79    6569.0222 
    9917   -1039.4798    77.408918    -962.0709    3766.4242    444558.23    1386.3579    429442.15    424267.84    479964.69    66533.789   -11714.131    1801.9504 
    9918   -1039.1973    77.347594   -961.84967    3763.4404    447739.01    1386.3579    434094.87    427054.81    482067.36    60484.136   -13202.384   -3196.1544 
    9919   -1039.1605    77.546749   -961.61379    3773.1305    449612.82    1386.3579    437048.86     429557.5     482232.1    53252.341   -15349.007   -7700.7856 
    9920    -1039.222    77.855114   -961.36686    3788.1344    450407.79    1386.3579    438246.93    431522.78    481453.66    44685.048   -17666.315    -10844.66 
    9921      -1039.3    78.192098   -961.10794    3804.5308     449308.1    1386.3579    437449.79       430915     479559.5    36157.074   -19203.513   -12202.694 
    9922   -1039.3711    78.532129     -960.839    3821.0754    449055.51    1386.3579    435837.96    432117.22    479211.36    28052.711   -21819.778   -12064.147 
    9923    -1039.416    78.852109   -960.56392    3836.6444    447063.97    1386.3579    431753.48    432648.89    476789.55    20880.724   -24132.642   -10739.539 
    9924   -1039.4004    79.123392   -960.27697     3849.844    444452.59    1386.3579    426435.83    432098.75    474823.18     14165.99   -26117.839   -8036.3336 
    9925   -1039.3302    79.345582   -959.98464    3860.6549    441471.14    1386.3579    420076.38    432008.12    472328.92    9842.8111   -28881.384   -4948.4218 
    9926   -1039.2376    79.555211   -959.68238    3870.8547    438689.79    1386.3579    412871.09    432358.79    470839.48    6848.8725   -30626.445   -1860.9749 
    9927   -1039.1743    79.795149   -959.37914    3882.5291    434732.99    1386.3579    405524.34    431009.86    467664.76    4755.6967   -33000.969     1997.556 
    9928   -1039.1452    80.068974   -959.07619    3895.8525    431709.86    1386.3579    399626.17    431317.87    464185.53    4112.3691   -36295.457    5679.4244 
    9929   -1039.0961    80.322648   -958.77341    3908.1953    428840.28    1386.3579    393722.43    432354.48    460443.94    4875.9077   -38476.529    8886.7233 
    9930   -1038.9324    80.470111   -958.46227    3915.3702    426638.18    1386.3579    387715.97    435069.25    457129.33    6826.5512   -40240.843    12392.389 
    9931    -1038.594    80.445626   -958.14833    3914.1789    425924.11    1386.3579    382696.02    439415.92    455660.38    8194.3651   -42069.093    15238.069 
    9932    -1038.071    80.247738   -957.82324    3904.5504    425001.62    1386.3579    378800.89    443067.18     453136.8    9841.7148   -43205.936    17331.165 
    9933   -1037.4596     79.95968   -957.49996    3890.5346    424490.18    1386.3579    377095.49    445320.02    451055.03    12016.677   -43952.817    19021.192 
    9934   -1036.8684    79.690441   -957.17793    3877.4345    424754.85    1386.3579     377145.9    447127.36    449991.29    13072.405   -44793.319    20775.851 
    9935   -1036.3927    79.535109   -956.85758    3869.8766    425719.63    1386.3579    377172.71    450158.87     449827.3    13770.802   -45393.579    21960.235 
    9936   -1036.1156    79.579791   -956.53579    3872.0507    426514.85    1386.3579    377240.34    453499.05    448805.17    15922.851   -43883.087    21802.288 
    9937   -1036.0873    79.870194   -956.21709    3886.1806    427341.84    1386.3579    379020.39    455360.02    447645.13    17821.687   -42147.772    22200.408 
    9938   -1036.3324    80.441636   -955.89076    3913.9848    427383.58    1386.3579    381784.72     456122.3    444243.72    19817.375   -39223.071     22479.33 
    9939   -1036.8978    81.330031   -955.56773    3957.2107    428328.82    1386.3579    383771.82    458663.79    442550.85    22979.989   -35333.799    23068.637 
    9940   -1037.7958    82.551812     -955.244    4016.6579    429570.71    1386.3579    386810.11    460746.64    441155.38    25325.269   -31159.682    23552.639 
    9941   -1039.0048    84.079453   -954.92535    4090.9872     430809.8    1386.3579    389460.39    462655.18    440313.83    27035.415   -26153.049    24747.591 
    9942   -1040.4117    85.799983   -954.61167    4174.7016    432752.24    1386.3579    393217.19    464702.79    440336.73    28290.408   -21616.003    25279.398 
    9943   -1041.8255    87.519811   -954.30566    4258.3819    435041.42    1386.3579    397569.16    466573.04    440982.06    29445.786   -17233.916    26136.899 
    9944   -1043.0114    89.007042   -954.00439    4330.7449    437600.76    1386.3579    403107.86    467611.63     442082.8     30850.05   -12188.385    26957.794 
    9945   -1043.7663    90.060555    -953.7057    4382.0049    439739.42    1386.3579    409957.91    466957.31    442303.04    32419.951   -8176.9593    27869.313 
    9946    -1043.981    90.571367   -953.40966    4406.8591     442748.7    1386.3579    418128.99    465562.36    444554.75    34185.685   -3252.7067    29063.613 
    9947   -1043.6842    90.560239   -953.12399    4406.3176    445125.58    1386.3579    425554.46    462343.56    447478.73      34693.3    1574.6066    30256.808 
    9948   -1043.0167    90.168712   -952.84802    4387.2674    446573.49    1386.3579    432980.33     458774.1    447966.03    35226.003    4836.1369    30249.074 
    9949   -1042.2029    89.611665   -952.59122    4360.1636     448610.8    1386.3579    439558.93    457004.44    449269.03    35167.842    7719.7631    30406.946 
    9950   -1041.4321    89.075896   -952.35618    4334.0951    449698.79    1386.3579    443777.38    454324.11     450994.9    33351.603    10910.163    30188.294 
    9951   -1040.7734    88.633761    -952.1396    4312.5825    448513.34    1386.3579    446044.99     448874.6    450620.45    29741.284    13302.305    30008.483 
    9952   -1040.2256    88.286063   -951.93954    4295.6648    446551.11    1386.3579    445891.62    444743.98    449017.72    26747.387    13833.012      29821.7 
    9953   -1039.7611    88.012792   -951.74832    4282.3685    443329.64    1386.3579       442621    441420.71     445947.2    22466.162    13563.043    29328.702 
    9954    -1039.371    87.804551   -951.56641    4272.2363    438846.95    1386.3579    438872.13    437039.66    440629.06    16795.544    12667.289    29078.377 
    9955   -1039.0502    87.650088    -951.4001    4264.7207    433908.38    1386.3579    434399.79    431897.77    435427.59    10285.149    11355.015    28833.531 
    9956   -1038.7581     87.51702   -951.24106    4258.2461    429711.66    1386.3579    431405.14    427215.71    430514.13     4885.794    9022.1768    27889.841 
    9957   -1038.4413    87.340652   -951.10062    4249.6647    423574.64    1386.3579    426785.63    419485.81    424452.47   -88.244299    6692.6728    24840.232 
    9958   -1037.9893    87.027156   -950.96213    4234.4112     418565.6    1386.3579    424527.57    411832.46    419336.76   -4905.1071    3823.8296    21687.354 
    9959   -1037.3276    86.496348   -950.83124    4208.5841    415539.31    1386.3579    424533.77    407291.97    414792.19   -8364.7573    703.11935    17861.749 
    9960   -1036.4281    85.724235   -950.70383     4171.016    413085.32    1386.3579    425010.82    402297.19    411947.95   -11180.287   -3470.2111    12759.404 
    9961    -1035.324    84.744123   -950.57985    4123.3274    410398.74    1386.3579    426945.69     397535.5    406715.02   -14855.549   -7393.0175    6430.3311 
    9962    -1034.101    83.637766   -950.46321    4069.4963    409600.88    1386.3579    429624.51    395676.48    403501.67   -17368.758   -11202.672    262.08087 
    9963   -1032.8784    82.532106   -950.34631    4015.6991    409027.22    1386.3579    431683.91    395543.93    399853.83   -19868.127   -15526.051   -5415.7448 
    9964   -1031.7979     81.56584   -950.23204    3968.6843     408140.8    1386.3579    432168.51    395176.42    397077.46   -22387.507   -17870.511   -9157.6769 
    9965   -1030.9962    80.874888   -950.12128    3935.0652    408297.59    1386.3579     432739.2     395917.8    396235.76   -23808.526   -19633.248   -13281.605 
    9966   -1030.5811    80.564128   -950.01694    3919.9448    408153.91    1386.3579    432022.28    396596.43    395843.03     -25113.7   -20040.273   -17605.391 
    9967   -1030.6003    80.689584   -949.91071     3926.049    407971.73    1386.3579    430308.48    396663.85    396942.86   -25865.188   -20659.131   -21493.342 
    9968   -1031.0784    81.270161   -949.80827    3954.2976    405921.26    1386.3579    427408.04    394076.76    396278.98   -25986.416   -20961.855   -24107.206 
    9969   -1031.9791    82.273037   -949.70605    4003.0938    403178.31    1386.3579    422058.31    391115.03     396361.6   -26290.118   -21306.776   -26123.365 
    9970   -1033.1977    83.590147   -949.60756    4067.1794    400391.29    1386.3579    415523.27    388249.48    397401.11   -24796.681   -20609.526   -26579.314 
    9971   -1034.5747    85.065555   -949.50919    4138.9671    396243.49    1386.3579    408948.76    383761.06    396020.66   -22761.804   -21064.446   -26206.592 
    9972    -1035.949    86.536735   -949.41223    4210.5491    391319.38    1386.3579    401924.41    378231.86    393801.86    -19312.96   -23184.368   -25017.718 
    9973   -1037.1679    87.847433   -949.32045    4274.3228    387819.76    1386.3579    396544.42    373783.81    393131.04   -15995.412    -23882.06   -22678.191 
    9974   -1038.1151    88.887337    -949.2278    4324.9206    384801.54    1386.3579    392018.27    370298.21    392088.13   -12002.302   -24653.528   -18791.519 
    9975   -1038.7559    89.614083   -949.14182    4360.2812     382358.2    1386.3579    389644.98    366313.01     391116.6   -7350.8852    -24890.35   -13850.172 
    9976   -1039.0743    90.008865   -949.06545    4379.4898    381097.03    1386.3579    389930.54    362764.42    390596.14   -4070.4556   -25110.309   -9325.1062 
    9977    -1039.065    90.064438   -949.00054    4382.1938    381782.02    1386.3579    393100.86    361450.77    390794.42   -1404.8212   -25429.227   -4494.9162 
    9978   -1038.7232      89.7809   -948.94227    4368.3979    384467.96    1386.3579     399891.6    362196.88    391315.41   -205.80417   -24581.347   -1042.9798 
    9979   -1038.0358    89.142093   -948.89375     4337.316    387328.01    1386.3579    408375.74    361752.29    391856.01    480.32955   -23904.289    2528.7806 
    9980   -1037.0295    88.184134   -948.84532    4290.7053    391282.77    1386.3579    419192.71    360690.73    393964.88    618.13237   -22626.299    5064.5344 
    9981   -1035.8364    87.032552   -948.80386    4234.6738    394747.17    1386.3579    429661.75    358644.63    395935.12   -2055.6982   -20678.448    6247.1615 
    9982   -1034.6228    85.857053   -948.76575    4177.4784    398369.29    1386.3579    438481.59    356991.76    399634.52   -5636.1981   -17820.023    7326.3199 
    9983   -1033.5626    84.822931   -948.73963     4127.162    401063.98    1386.3579    444583.43    355604.37    403004.13   -9603.2546   -16271.411    6799.0904 
    9984   -1032.7509    84.036026   -948.71489    4088.8742    404314.61    1386.3579    449266.98    355646.39    408030.48   -13129.534   -15128.928    6107.8292 
    9985   -1032.2348    83.532576   -948.70226    4064.3782    406819.68    1386.3579    450771.11    356569.66    413118.28   -16485.703   -13641.819    5927.3405 
    9986   -1031.9623    83.276995   -948.68527    4051.9426    408067.02    1386.3579    448779.29    358322.19     417099.6   -18829.818   -13003.654    5933.5391 
    9987   -1031.8861     83.21902   -948.66707    4049.1217    409089.66    1386.3579    444543.31    361367.08    421358.58   -19145.434   -14355.041    4567.7649 
    9988   -1031.9836    83.327372    -948.6562    4054.3937     409318.2    1386.3579     439544.9    363498.96    424910.74   -18896.624   -16992.768    4401.4434 
    9989   -1032.1944    83.554843   -948.63957    4065.4616    409728.41    1386.3579    435123.98    365245.67    428815.57   -17611.581    -19232.21    3946.4534 
    9990   -1032.4901    83.866518   -948.62362    4080.6265    409446.47    1386.3579     429714.1    365271.38    433353.93   -15439.039   -21384.523     4654.194 
    9991   -1032.8425    84.235845   -948.60661    4098.5966     409743.3    1386.3579    425153.15     365387.7    438689.04   -11999.104    -23701.17    4869.7162 
    9992   -1033.2424    84.650145    -948.5923    4118.7548    410345.49    1386.3579    419525.12    366380.78    445130.58   -8288.2531   -25503.976    4066.5414 
    9993   -1033.7128    85.136468   -948.57628    4142.4175    410352.26    1386.3579    414900.91    366598.89    449556.98    -5142.495   -26162.357    3119.3189 
    9994   -1034.3017    85.739118   -948.56257    4171.7401    411268.43    1386.3579     413082.3    367898.36    452824.62   -3742.3895   -26340.031    1652.9245 
    9995   -1035.0427     86.47976   -948.56294     4207.777    411895.53    1386.3579    412082.97    369933.49    453670.13   -2394.3356   -25552.461   -1378.2334 
    9996    -1035.876    87.307283   -948.56868    4248.0411    412873.44    1386.3579     411872.9    372225.58    454521.83   -1457.3658   -24444.989    -5858.064 
    9997   -1036.6658    88.083324   -948.58247    4285.8003    414588.75    1386.3579    415060.27    375260.44    453445.54   -821.89316   -23006.074   -10473.159 
    9998   -1037.2381    88.636168   -948.60194    4312.6996    416233.57    1386.3579    419128.84    379908.27     449663.6   -822.19899   -21597.407   -16086.631 
    9999   -1037.4636    88.844317   -948.61929    4322.8273    419473.31    1386.3579    425495.91    386838.47    446085.57   -551.43309   -20137.969   -21503.454 
   10000   -1037.3419    88.710706   -948.63117    4316.3263    423245.07    1386.3579     432616.4    394207.94    442910.88   -109.21416   -18568.238   -26014.835 
Loop time of 155.759 on 2 procs for 10000 steps with 160 atoms

Performance: 5.547 ns/day, 4.327 hours/ns, 64.202 timesteps/s
1200.7% CPU use with 2 MPI tasks x no OpenMP threads

MPI task timing breakdown:
Section |  min time  |  avg time  |  max time  |%varavg| %total
---------------------------------------------------------------
Pair    | 148.7      | 149.66     | 150.61     |   7.8 | 96.08
Neigh   | 0.6615     | 0.66572    | 0.66994    |   0.5 |  0.43
Comm    | 3.8489     | 4.867      | 5.885      |  46.1 |  3.12
Output  | 0.33146    | 0.39466    | 0.45786    |  10.1 |  0.25
Modify  | 0.1443     | 0.14829    | 0.15228    |   1.0 |  0.10
Other   |            | 0.02742    |            |       |  0.02

Nlocal:        80.0000 ave          82 max          78 min
Histogram: 1 0 0 0 0 0 0 0 0 1
Nghost:        1789.50 ave        1801 max        1778 min
Histogram: 1 0 0 0 0 0 0 0 0 1
Neighs:        0.00000 ave           0 max           0 min
Histogram: 2 0 0 0 0 0 0 0 0 0

Total # of neighbors = 0
Ave neighs/atom = 0.0000000
Neighbor list builds = 1000
Dangerous builds not checked
unfix           1

Please see the log.cite file for references relevant to this simulation

Total wall time: 0:02:38
