ITEM: TIMESTEP
0
ITEM: NUMBER OF ATOMS
160
ITEM: BOX BOUNDS xy xz yz pp pp pp
0.0000000000000000e+00 1.1150434355800000e+01 0.0000000000000000e+00
0.0000000000000000e+00 1.1150434355800000e+01 0.0000000000000000e+00
0.0000000000000000e+00 1.1150434355800000e+01 0.0000000000000000e+00
ITEM: ATOMS id type x y z
1 1 1.13804 8.33162 2.34703
4 1 9.67171 3.60785 0.320964
5 1 10.2515 2.18057 3.01481
8 1 9.43086 0.0335025 4.92658
9 1 10.9224 10.6264 2.06473
11 1 2.46901 3.38991 2.9845
13 1 6.7647 10.9017 2.61751
14 1 3.50766 0.880232 3.80928
16 1 5.51108 2.90719 4.10657
19 1 6.90887 8.42772 1.01286
21 1 9.635 7.32138 5.03815
22 1 3.84173 6.33483 2.87246
24 1 5.72615 8.32378 3.25921
25 1 4.15984 7.826 0.320758
26 1 0.437859 5.55425 1.33822
31 1 1.46923 2.23389 0.506591
32 1 10.0355 7.8439 0.693862
33 2 5.92391 4.92582 0.775047
36 2 3.27353 9.52521 2.29969
39 2 9.06315 9.43888 2.94572
40 2 8.22456 5.30225 2.44533
41 2 1.48683 5.96365 4.69929
42 2 4.02994 9.38946 5.48422
45 2 4.39466 1.39353 1.34997
47 2 5.32017 5.45735 4.40847
48 2 8.00487 5.97294 0.110204
49 2 6.2093 0.100097 5.22521
50 2 10.5863 4.61385 3.99659
52 2 1.3193 1.31589 4.48525
57 2 7.2807 2.82253 2.11155
58 2 7.53719 5.45156 5.4884
61 2 7.49029 2.15432 5.24051
62 2 1.32633 9.52367 4.92849
66 3 8.73997 4.47811 3.84323
69 3 3.43493 8.96194 4.07417
70 3 4.07082 10.9351 1.90509
71 3 6.15321 1.60414 1.42196
73 3 9.17473 9.41485 0.901932
79 3 2.2511 4.19224 0.930202
82 3 1.70027 11.1388 5.46208
83 3 1.84595 5.44714 3.30779
84 3 8.12633 6.53352 4.316
85 3 6.64652 4.07173 5.06065
87 3 4.15286 4.27236 3.86148
89 3 10.2861 8.60337 2.7208
92 3 4.23186 6.83425 4.64449
95 3 6.53561 3.50431 0.389785
98 3 2.76291 6.17696 0.0428615
99 3 7.48293 9.02934 2.89526
101 3 1.21981 1.7696 2.7843
103 3 8.63346 6.90924 1.54356
105 3 4.08867 2.09626 2.7811
108 3 0.0591455 10.6368 4.34993
115 3 9.34555 10.9784 2.80771
120 3 10.5114 1.68017 4.91475
121 3 6.64988 6.25349 0.680929
125 3 3.22042 1.23054 0.411165
126 3 7.61464 0.564176 4.53248
127 3 5.83138 10.1848 1.25564
128 3 4.67783 5.13232 1.45085
129 3 8.56294 4.57759 1.1076
131 3 10.6771 1.3905 1.00827
135 3 1.26201 3.98368 4.62135
136 3 5.29429 0.181818 3.92962
138 3 2.5949 9.59506 0.808864
140 3 5.46381 8.82394 5.16883
141 3 1.24763 7.68504 4.38411
144 3 6.26189 6.24081 3.26938
146 3 6.95679 4.3888 2.37643
147 3 10.6167 4.1624 2.32405
148 3 8.60777 2.18384 1.40278
151 3 8.62175 9.5764 5.016
152 3 10.63 6.24304 3.78447
154 3 1.65839 10.1386 2.90899
155 3 4.23573 7.96067 2.03995
156 3 0.837172 7.31502 1.06231
157 3 2.65717 2.16605 4.67254
159 3 7.18449 2.48495 3.49611
2 1 2.48351 3.77368 6.23338
3 1 2.81593 9.69457 8.2684
6 1 2.50016 6.65818 7.99923
7 1 9.24781 9.46066 6.94176
10 1 9.0186 0.983782 8.12971
12 1 7.15085 8.58155 8.95974
15 1 3.07852 1.10473 6.54652
17 1 6.01748 2.35505 7.66399
18 1 6.88751 2.12017 10.6579
20 1 0.535779 9.95297 7.33333
23 1 10.6119 5.33082 7.48507
27 1 3.5827 1.64606 9.09745
28 1 8.33608 3.5482 8.66824
29 1 1.8685 7.87861 10.7144
30 1 7.76411 6.25243 8.31557
34 2 9.47219 1.2256 11.0056
35 2 6.06742 10.9791 8.16668
37 2 4.86615 7.78681 8.81323
38 2 3.55815 4.88872 10.9914
43 2 1.35139 4.81292 9.39618
44 2 4.28632 6.08649 6.36756
46 2 6.33594 10.9094 10.889
51 2 10.0645 6.91246 9.52516
53 2 2.92989 10.7049 10.6588
54 2 1.00258 10.7832 9.57121
55 2 5.40299 4.75418 8.86673
56 2 6.28396 8.7283 6.50997
59 2 0.332507 7.63869 6.89116
60 2 1.18735 2.68394 8.38272
63 2 9.50136 9.68379 9.99237
64 2 10.2338 2.42811 6.3976
65 3 3.28378 8.05786 9.25995
67 3 2.57923 9.49779 6.37654
68 3 5.22105 4.95005 10.3601
72 3 6.92695 10.768 6.70076
74 3 0.592448 2.19293 6.91929
75 3 5.91381 1.70304 5.62417
76 3 6.64898 4.33771 8.05514
77 3 1.82375 9.40902 9.86397
78 3 5.74308 8.27963 10.3053
80 3 5.1771 9.25699 7.7871
81 3 9.44034 5.50266 8.8905
86 3 1.76583 1.96898 9.65486
88 3 7.46166 7.98778 7.08332
90 3 2.85494 4.26884 9.78784
91 3 7.25185 1.10359 8.61827
93 3 2.69945 6.11864 5.99276
94 3 4.2066 7.76557 6.6397
96 3 10.922 10.1047 8.97307
97 3 0.433722 4.06751 10.4455
100 3 10.1045 0.711986 9.70975
102 3 0.770402 6.21089 8.95873
104 3 3.85382 10.8005 9.18768
106 3 6.21557 10.1608 9.41517
107 3 11.0418 8.93762 5.96925
109 3 1.44836 8.24344 7.84998
110 3 10.3363 5.73791 10.9478
111 3 10.734 8.25107 10.162
112 3 0.316018 6.21983 6.28456
113 3 10.3811 4.0782 5.60688
114 3 5.0229 0.853432 7.62225
116 3 8.77372 2.5303 10.3028
117 3 2.71839 2.82597 7.68873
118 3 4.82487 4.55969 6.03218
119 3 8.79286 5.69099 6.62931
122 3 6.46619 6.52889 6.0611
123 3 9.84907 7.63291 7.83436
124 3 6.07633 6.79773 8.41304
130 3 9.71244 0.0129195 6.65966
132 3 4.23719 5.97508 7.98307
133 3 1.38185 0.0920325 8.11362
134 3 7.32883 4.99919 10.0686
137 3 0.703671 4.15911 7.95799
139 3 8.12309 7.7157 10.4477
142 3 4.8598 3.04057 9.04938
143 3 8.56591 2.37717 6.53958
145 3 1.4244 0.225753 10.9526
149 3 8.60885 9.65233 8.54772
150 3 4.58743 10.724 5.95768
153 3 5.11572 0.835382 10.3947
158 3 10.1067 2.48928 8.14376
160 3 7.91932 0.295637 11.1322
ITEM: TIMESTEP
500
ITEM: NUMBER OF ATOMS
160
ITEM: BOX BOUNDS xy xz yz pp pp pp
0.0000000000000000e+00 1.1150434355800000e+01 0.0000000000000000e+00
0.0000000000000000e+00 1.1150434355800000e+01 0.0000000000000000e+00
0.0000000000000000e+00 1.1150434355800000e+01 0.0000000000000000e+00
ITEM: ATOMS id type x y z
1 1 1.15637 8.49163 0.895742
4 1 9.74987 2.79732 0.486061
5 1 10.1797 1.65653 3.17305
98 3 2.40491 6.32948 0.0981753
9 1 0.709403 0.198501 1.54281
11 1 1.12681 3.22371 1.86704
13 1 6.27219 0.375143 2.54021
14 1 3.44794 1.37879 2.66397
16 1 3.60932 3.88747 2.95752
19 1 6.20044 8.39766 1.71303
38 2 3.05041 4.67684 0.366189
22 1 3.73896 6.48541 3.09875
24 1 7.27305 8.5047 4.23549
160 3 6.75132 0.0415995 0.960037
26 1 0.488579 5.76025 0.93131
53 2 3.17814 10.5565 0.252636
32 1 9.06443 7.96756 1.87602
33 2 5.75716 5.59566 0.376466
36 2 3.70347 9.63536 2.57472
39 2 8.67537 10.4595 2.83447
40 2 7.58739 5.27242 2.95799
41 2 0.789057 6.25497 3.5924
42 2 4.58825 9.14948 5.29558
45 2 4.77101 2.71675 0.469741
47 2 6.01033 3.90663 4.45796
48 2 8.82345 6.06703 0.189752
58 2 8.18863 6.4003 5.25957
50 2 9.98675 3.83385 3.55236
52 2 1.33761 1.62946 4.16022
57 2 7.31171 2.97827 1.29175
61 2 5.82504 1.68289 4.74477
84 3 9.0162 7.36418 3.98715
62 2 2.18803 10.016 4.47139
66 3 8.22341 5.07055 4.51663
69 3 5.33079 9.5081 3.07377
70 3 3.77079 11.0671 3.47617
71 3 5.61246 2.26952 1.77391
79 3 1.11109 3.93915 0.299994
21 1 10.5831 8.2217 4.15416
82 3 2.22648 0.401102 5.28489
83 3 1.97957 4.92762 3.01486
113 3 9.3942 3.20312 5.07569
85 3 4.95822 2.73676 4.04001
87 3 5.09309 4.95868 3.81982
89 3 9.86411 9.77583 1.92625
92 3 5.17711 7.75912 4.35661
95 3 6.23033 3.9872 0.245569
159 3 6.95791 1.02063 4.02011
99 3 7.62096 9.28396 2.63475
101 3 1.3828 1.12826 2.77038
103 3 8.98364 6.05616 1.6664
105 3 3.14187 3.20775 1.44185
108 3 0.963662 9.86903 3.58969
115 3 8.2422 0.744971 2.22824
120 3 10.8511 1.12555 4.79712
121 3 6.50802 6.09624 1.92983
34 2 8.25106 0.517185 0.751954
2 1 2.52121 4.22155 5.20647
127 3 4.79958 9.9455 1.06332
128 3 4.35075 5.23296 1.29876
129 3 8.29429 4.19005 0.690778
131 3 10.9019 1.64035 1.43787
135 3 0.554106 3.28553 3.79756
136 3 6.23655 10.1914 5.05643
138 3 2.27822 10.5316 1.84372
157 3 2.82337 2.78719 4.13742
141 3 1.99001 7.0328 4.11874
144 3 6.60591 6.32365 4.41041
146 3 6.89618 3.43275 3.17091
147 3 10.6573 4.63171 2.10408
148 3 8.94717 2.95448 2.59137
151 3 8.96348 10.3422 4.63428
152 3 10.5713 5.67573 4.27174
154 3 3.40383 8.87975 4.18485
155 3 2.85532 8.15469 2.11605
156 3 0.0617966 7.32509 2.36566
8 1 8.25432 0.989804 5.53019
116 3 7.98195 2.11097 0.153562
73 3 8.48103 9.67298 0.393927
125 3 4.18422 0.87473 0.834659
93 3 3.7413 6.07231 5.51771
143 3 6.89354 2.89191 5.48955
96 3 10.8212 9.14339 0.146596
140 3 7.61778 8.31294 6.06071
3 1 3.65111 9.45186 8.31752
6 1 3.0917 6.37108 7.38535
7 1 9.22718 8.90158 7.59792
10 1 9.67312 1.24671 9.06008
12 1 7.12819 9.01969 10.1628
15 1 1.84708 0.814831 7.14241
17 1 5.31177 2.56696 7.01236
18 1 7.40616 3.30437 9.83388
20 1 10.7867 10.8181 5.91037
23 1 0.0581777 5.57423 6.2493
27 1 3.63338 1.4938 8.65821
28 1 8.21592 3.46415 7.08849
29 1 1.77686 6.40248 9.50895
30 1 8.46909 6.22157 8.30207
158 3 10.2326 3.73779 7.28862
35 2 7.09196 0.378121 8.41393
37 2 5.48688 7.23919 9.46219
150 3 4.42513 10.0517 6.83329
43 2 10.3305 4.15022 8.80051
49 2 5.71809 11.083 6.64143
110 3 10.1924 5.43394 10.5146
51 2 10.4913 6.97309 9.82777
145 3 1.75407 0.0806049 10.9749
54 2 1.34282 9.98305 9.6167
55 2 5.11886 4.75497 8.44829
56 2 6.58674 7.91633 7.25609
59 2 0.917564 8.53318 7.23782
60 2 2.41201 3.47608 7.60146
63 2 9.51927 9.71071 10.5974
64 2 10.6852 2.52787 6.38229
65 3 3.50016 7.29798 9.27872
97 3 10.2395 2.85128 9.62997
68 3 4.85153 5.65578 10.0262
72 3 7.72352 10.2325 7.73156
74 3 1.29453 2.61239 6.39859
111 3 0.633217 7.22819 10.6262
76 3 6.3239 3.70779 8.04343
77 3 2.61682 9.22098 10.5175
78 3 5.62235 7.56821 11.0547
80 3 5.49646 8.72326 8.72801
81 3 8.67129 4.65869 8.82514
86 3 0.344482 10.2737 8.35661
88 3 7.61628 7.54776 8.54552
90 3 2.26696 3.40996 9.06217
91 3 7.97692 1.71215 8.50481
67 3 1.71303 9.41775 6.15015
94 3 5.13739 7.71243 6.75035
44 2 5.24252 6.37164 5.69125
126 3 7.13733 1.11066 6.74629
46 2 5.52734 0.272952 10.8689
102 3 0.302867 5.46121 8.67414
104 3 4.24015 10.8308 10.1258
106 3 7.05624 0.126713 9.84343
107 3 10.5101 8.72245 6.09901
109 3 1.73148 8.31723 8.79124
149 3 9.10378 9.50981 9.11594
142 3 3.8704 3.52695 10.4254
112 3 1.59981 7.06529 6.82772
100 3 9.71284 0.139204 11.0023
114 3 5.47098 0.733354 8.13906
31 1 1.34969 1.9373 10.2689
117 3 3.36858 2.32051 7.18186
75 3 4.70967 1.03696 5.84436
119 3 9.22797 5.91713 6.29275
153 3 5.79893 2.00479 10.315
123 3 10.1042 7.43672 8.27683
124 3 5.44108 6.23449 7.91612
130 3 10.4171 1.53311 7.4129
132 3 3.68895 4.45997 8.30514
133 3 2.19343 0.307059 8.99302
134 3 7.17633 6.08075 10.3832
137 3 1.74815 4.79913 6.90233
139 3 9.02164 7.30238 10.3412
122 3 7.00718 6.23064 6.56408
118 3 4.93531 4.47048 6.12792
25 1 3.66801 7.77484 11.1027
ITEM: TIMESTEP
1000
ITEM: NUMBER OF ATOMS
160
ITEM: BOX BOUNDS xy xz yz pp pp pp
0.0000000000000000e+00 1.1150434355800000e+01 0.0000000000000000e+00
0.0000000000000000e+00 1.1150434355800000e+01 0.0000000000000000e+00
0.0000000000000000e+00 1.1150434355800000e+01 0.0000000000000000e+00
ITEM: ATOMS id type x y z
1 1 2.32911 8.4008 3.9712
4 1 9.95431 2.08242 0.61004
5 1 9.19281 1.55919 3.5788
116 3 8.17352 1.23279 0.460215
9 1 0.760376 0.294477 1.67481
11 1 0.415109 3.77329 1.76387
13 1 7.14487 0.278451 2.05427
14 1 3.56307 0.942037 3.26573
16 1 3.07295 3.69039 2.65582
19 1 6.90368 8.7784 0.646959
139 3 8.84974 6.42021 0.251819
22 1 4.71781 6.30326 3.52344
24 1 7.47905 8.70902 4.12783
160 3 6.80492 10.6373 0.500563
20 1 0.220289 10.6676 3.60474
96 3 10.4939 0.370166 0.483422
32 1 0.888796 8.94873 0.505965
33 2 4.93475 5.54676 1.0667
36 2 5.08624 9.79817 3.1029
39 2 9.35191 9.06306 2.52425
40 2 7.38127 6.62371 2.66282
41 2 2.10835 6.4917 2.49908
95 3 4.96801 3.88407 0.480892
45 2 4.71616 2.14157 0.548517
47 2 5.67756 3.58709 4.00745
58 2 9.26871 6.51138 4.85938
156 3 1.85186 8.11805 1.85325
50 2 9.10765 4.31863 3.50766
52 2 1.57182 1.67714 4.60829
57 2 7.38649 2.71094 1.6713
61 2 6.46608 0.527316 5.17147
155 3 4.145 8.52619 4.03208
134 3 5.95482 6.18034 0.192745
66 3 8.10995 5.67841 4.03796
69 3 6.66796 9.48742 2.74525
70 3 5.12775 11.1005 4.04736
71 3 6.14072 1.82293 1.7445
25 1 3.29262 7.53404 0.459895
21 1 10.6311 6.78276 1.48237
73 3 8.63601 8.85128 0.729239
83 3 3.08974 5.56107 3.17681
78 3 4.74278 6.79271 1.81749
85 3 4.56619 2.3362 3.96085
87 3 4.68716 4.76453 5.00214
89 3 0.0581488 9.26901 2.31069
92 3 6.42951 7.05558 3.7663
125 3 4.72257 0.430333 1.33731
159 3 7.75098 0.80488 4.19104
99 3 8.81949 7.62006 2.76442
101 3 1.00762 1.00972 3.17438
103 3 9.00232 5.12526 2.07948
105 3 3.59384 2.14696 1.90387
108 3 0.967177 9.47633 5.34541
115 3 8.85561 10.7987 2.27883
120 3 10.1117 0.608253 4.87652
121 3 5.51027 4.77896 2.38639
34 2 8.32982 10.7444 0.194422
2 1 0.665939 4.56797 4.53237
127 3 4.65055 9.11728 1.08091
128 3 3.51912 5.57866 0.384786
129 3 7.52057 3.81267 0.384667
131 3 0.618599 2.03816 1.04641
135 3 10.5521 3.24603 3.16128
53 2 3.64231 10.5152 0.959112
138 3 2.82447 10.268 2.5891
157 3 2.0464 3.17386 4.24586
141 3 1.19093 6.61989 3.85624
113 3 9.24772 2.88832 5.16739
146 3 7.276 3.39027 3.28849
147 3 1.22601 5.51431 1.72782
148 3 8.93238 2.4076 2.13638
151 3 9.39576 9.46445 3.98123
152 3 10.3321 5.31809 4.1147
136 3 6.56218 10.0216 5.31022
107 3 10.55 7.50359 5.02966
145 3 2.22363 0.0259674 0.378469
93 3 3.34806 7.11935 5.28642
17 1 3.89015 2.62261 5.49183
6 1 1.05673 7.16143 5.46036
82 3 2.5092 0.751681 5.54503
140 3 8.4155 9.75446 6.79356
3 1 4.86423 8.88638 9.17779
74 3 0.407381 2.16483 5.77743
7 1 10.1277 9.02892 5.92935
10 1 8.68013 1.10795 8.55331
12 1 8.47553 9.45726 8.64319
15 1 0.77253 1.23582 7.91842
98 3 2.39522 6.76278 10.0573
18 1 6.15728 3.54106 10.1457
48 2 8.91806 4.90561 10.9275
23 1 10.4778 6.15049 7.75231
27 1 3.69293 2.66446 8.74376
28 1 8.28542 3.7967 6.62222
29 1 2.68567 7.27783 7.84675
30 1 7.79675 6.28623 7.70121
158 3 10.0172 3.13192 7.54092
35 2 6.32174 2.31355 6.9125
37 2 6.41152 6.75748 9.79465
150 3 2.13599 9.10772 7.99368
43 2 10.1238 3.74866 9.10594
49 2 4.47486 0.134992 7.11529
26 1 0.962268 5.71085 10.5214
51 2 9.17546 7.60471 10.22
142 3 3.70597 2.10144 10.3683
54 2 2.51752 10.6929 9.65758
55 2 3.79996 4.56913 7.45005
56 2 6.83748 9.3435 6.74425
59 2 0.6167 8.94216 8.63405
60 2 1.30791 4.21631 7.64051
63 2 11.0312 0.0518932 10.2424
75 3 5.09699 1.12658 6.02429
65 3 4.70642 7.06784 9.50572
97 3 9.91913 2.3958 9.80238
68 3 4.45027 4.4229 9.21803
72 3 5.71264 10.4082 7.40923
44 2 5.51801 5.97239 6.28568
111 3 10.9257 7.54094 11.0854
76 3 4.95609 3.15848 7.0204
77 3 3.02057 9.10776 10.7778
62 2 1.88372 10.2569 6.55329
80 3 7.35106 8.29028 10.0792
81 3 8.80476 4.5074 9.40233
86 3 1.23453 0.730452 9.61281
88 3 6.68152 8.14562 7.84152
90 3 1.68135 2.94948 8.47308
91 3 7.21401 2.83912 8.21835
67 3 0.62679 10.4692 7.70003
94 3 4.64863 8.80358 7.43164
79 3 1.9896 4.13664 10.3032
126 3 7.3245 0.87208 6.7361
46 2 5.73009 0.622883 9.52814
102 3 0.248814 4.80478 8.69952
104 3 4.43399 10.8699 10.1679
106 3 7.21251 0.0121073 9.37619
8 1 8.64203 11.0857 5.7052
109 3 0.867875 9.88048 10.0581
149 3 10.1026 8.80172 9.27988
84 3 8.34203 7.64987 5.72507
112 3 0.591324 7.46978 7.99288
137 3 0.82433 5.2489 6.51627
114 3 5.19998 1.28243 8.17403
122 3 5.74596 7.55103 5.68028
117 3 2.99666 3.93968 6.38982
118 3 4.50058 5.94491 7.67324
119 3 9.38368 5.48447 6.67822
153 3 5.92833 1.87163 10.4416
123 3 9.35067 6.93792 8.82615
124 3 6.92802 5.52484 9.12847
130 3 9.88044 0.640936 7.41433
132 3 2.40191 5.48038 8.17437
133 3 2.91649 0.0891212 8.02091
154 3 3.54584 9.97212 5.87319
42 2 4.17358 8.35861 5.92751
100 3 9.38583 10.8502 9.73408
31 1 1.92655 2.35964 11.1397
64 2 9.99206 1.76086 6.06161
144 3 6.94392 5.11184 6.15487
38 2 3.09714 5.12221 9.98559
143 3 7.02672 2.84161 5.65887
110 3 10.5693 4.47425 10.6593
ITEM: TIMESTEP
1500
ITEM: NUMBER OF ATOMS
160
ITEM: BOX BOUNDS xy xz yz pp pp pp
0.0000000000000000e+00 1.1150434355800000e+01 0.0000000000000000e+00
0.0000000000000000e+00 1.1150434355800000e+01 0.0000000000000000e+00
0.0000000000000000e+00 1.1150434355800000e+01 0.0000000000000000e+00
ITEM: ATOMS id type x y z
1 1 3.41629 9.30914 4.00735
4 1 9.8341 2.63026 0.705831
5 1 9.74863 0.949801 3.5789
62 2 0.438168 6.90047 5.36609
9 1 1.58426 1.35847 2.3343
11 1 0.726034 4.63396 1.94387
93 3 2.90085 6.83266 5.06084
14 1 4.62079 1.0598 2.73048
16 1 3.68037 3.70693 2.81109
145 3 2.27884 0.458337 0.412721
125 3 4.30881 10.8599 0.788762
22 1 4.37319 6.38756 3.84213
24 1 8.48344 9.85959 3.53082
128 3 4.9955 6.14961 0.268304
20 1 10.7101 9.55908 4.03895
107 3 10.308 7.73313 4.87029
32 1 1.01966 8.09046 0.15975
33 2 5.83315 5.18481 1.25941
36 2 5.90215 9.35933 2.24257
39 2 10.5797 9.87105 1.1884
40 2 7.30324 7.05998 2.83417
41 2 1.5325 6.89975 3.20992
67 3 0.979838 10.5195 5.27475
45 2 4.41223 2.76929 0.35879
47 2 6.38071 3.90906 4.43477
75 3 4.47842 10.7752 4.59116
156 3 2.95053 6.21648 2.83569
50 2 9.06868 4.18662 3.71532
52 2 1.60529 0.483058 4.62653
57 2 7.47605 2.54089 1.67751
61 2 5.97578 0.221992 4.33629
155 3 4.43603 8.74209 2.5956
134 3 7.30882 5.87379 1.41206
66 3 6.47939 5.60147 5.18732
69 3 7.35245 8.6411 2.21627
70 3 6.00871 10.6619 2.87937
71 3 6.00681 1.88163 1.59481
25 1 3.65429 7.22118 1.25181
21 1 9.90613 6.71766 2.1318
139 3 9.30887 6.79097 0.333353
83 3 4.0311 4.53556 1.2595
78 3 5.5729 6.74669 2.22502
85 3 5.30974 1.86843 4.17942
87 3 4.79787 4.4937 4.35882
89 3 0.827236 9.99689 1.45889
92 3 8.3379 7.10212 3.94747
79 3 1.77548 4.24016 0.318255
159 3 7.71521 0.490707 3.92458
99 3 10.3978 8.45507 2.55064
101 3 0.363491 0.82471 3.374
103 3 9.02871 5.34231 2.57818
105 3 3.44404 1.82398 1.36489
108 3 1.60089 8.33031 4.07179
115 3 9.42045 10.6539 2.09445
34 2 8.818 0.477766 0.19749
121 3 6.63438 4.1893 2.67669
48 2 8.76058 5.298 0.379435
2 1 0.774479 4.04499 4.52059
127 3 5.95691 9.56779 0.695184
77 3 2.82032 8.82592 0.180079
129 3 8.18466 3.2183 0.402269
131 3 0.590356 2.62582 1.55666
135 3 10.5882 3.79647 3.25089
53 2 2.59697 10.2146 1.29311
138 3 2.82292 11.0989 2.87362
157 3 2.07283 3.08546 3.82657
141 3 0.783892 5.95208 4.15654
110 3 10.0534 4.43359 0.161902
146 3 7.82459 3.75585 4.35473
147 3 0.842555 6.87484 1.52454
148 3 8.90281 2.51064 2.60986
151 3 9.95269 10.7425 4.96803
152 3 9.61252 4.91931 4.95531
136 3 6.89937 9.51748 4.7946
122 3 4.73022 8.21192 4.94938
116 3 7.91338 0.898375 1.31288
113 3 9.49744 2.17451 5.13568
96 3 10.4512 0.457156 0.210677
98 3 2.68982 6.44552 0.0832623
17 1 3.54521 3.04918 5.55309
95 3 5.5672 3.92136 0.194634
140 3 7.09592 9.64503 7.45337
3 1 5.01082 8.37232 8.4811
74 3 10.4101 3.34811 6.58696
7 1 8.77292 8.8777 7.18916
10 1 6.69331 2.67104 10.165
12 1 7.7167 10.8796 8.89534
15 1 1.76789 2.05697 7.9178
73 3 10.2419 8.87236 10.9898
18 1 7.31727 4.32437 8.38102
8 1 8.30746 0.527591 6.13156
23 1 0.070799 7.13331 8.06745
27 1 4.54915 0.724347 8.73445
28 1 8.74258 3.45027 6.2257
29 1 2.95566 7.87083 9.68816
30 1 8.4863 6.53006 9.06386
158 3 8.77637 3.52399 8.15638
35 2 6.13916 1.87186 6.98931
37 2 5.69722 6.79937 10.1563
150 3 1.01051 9.94567 10.2483
43 2 10.0661 3.93033 8.98218
120 3 0.70976 1.34701 6.44434
143 3 6.8132 3.28465 6.11312
51 2 10.8554 9.47315 9.34163
142 3 2.66875 1.49709 9.44903
54 2 2.14818 11.1464 10.0326
55 2 4.28131 4.30414 8.54082
56 2 6.57221 8.70926 6.19396
59 2 1.18385 9.88533 6.63567
60 2 0.810116 4.22111 7.28944
63 2 10.0808 0.991636 8.9758
64 2 10.2254 1.64716 6.39297
65 3 4.74794 8.07543 10.095
97 3 10.6687 2.51212 9.75137
68 3 3.84897 3.53266 10.0001
72 3 4.70418 10.1478 7.01221
44 2 6.0422 5.65273 6.63481
111 3 0.609582 8.01214 9.55349
76 3 5.80292 3.23601 8.57355
126 3 6.32292 0.639196 6.02973
38 2 3.25183 4.92573 11.0151
80 3 7.14256 7.33247 9.65451
81 3 7.78297 4.86419 10.1868
86 3 0.690987 0.756319 9.0869
88 3 5.80012 7.30471 7.2582
90 3 0.694446 4.22319 9.06354
91 3 6.63706 1.23669 8.38382
154 3 2.75733 9.58074 5.83873
94 3 3.46218 7.49077 7.74772
49 2 3.58053 11.046 6.5329
100 3 8.90699 1.32459 10.0502
46 2 4.74618 9.65083 10.724
102 3 10.4245 5.62872 9.30067
104 3 3.61771 10.0434 9.19153
106 3 6.03804 10.1178 9.68276
6 1 2.57915 5.91171 6.91322
109 3 9.79737 10.5213 8.81823
149 3 10.9071 9.21735 7.51483
144 3 7.41521 5.58495 7.39715
112 3 1.23229 8.1358 6.61178
137 3 0.904645 5.76317 6.66178
114 3 4.66373 1.42561 6.98958
31 1 1.17836 2.5501 10.7832
117 3 1.78518 3.78164 6.18841
118 3 4.60266 4.85935 6.78835
119 3 9.47304 6.34721 7.10242
153 3 5.17403 1.36509 10.3594
123 3 9.54051 8.03216 8.7297
124 3 5.05365 5.58079 9.32759
130 3 9.35359 1.26418 7.53569
132 3 2.74551 4.72127 8.41888
133 3 2.10816 10.5156 7.61468
26 1 0.25778 5.77191 10.7234
42 2 3.59974 8.02064 6.04068
82 3 2.67442 1.03114 5.59576
58 2 8.84875 6.42041 5.65014
19 1 8.30653 8.38526 10.3791
84 3 7.92671 7.83809 5.98913
160 3 7.9733 10.3013 10.7711
13 1 6.33442 0.140995 11.1197
ITEM: TIMESTEP
2000
ITEM: NUMBER OF ATOMS
160
ITEM: BOX BOUNDS xy xz yz pp pp pp
0.0000000000000000e+00 1.1150434355800000e+01 0.0000000000000000e+00
0.0000000000000000e+00 1.1150434355800000e+01 0.0000000000000000e+00
0.0000000000000000e+00 1.1150434355800000e+01 0.0000000000000000e+00
ITEM: ATOMS id type x y z
1 1 2.77005 9.86475 3.82438
4 1 9.45751 2.06309 0.569551
5 1 9.31416 0.644435 3.27447
151 3 9.92445 10.4235 5.25785
9 1 0.0722176 11.0518 1.1792
11 1 0.437626 4.06309 1.2076
19 1 7.65509 7.50283 0.518762
14 1 3.93802 1.90762 3.62454
16 1 1.58125 2.57462 2.68189
136 3 7.3845 0.299186 5.49723
93 3 3.96077 6.99314 4.50235
22 1 4.49448 4.76626 2.58447
24 1 8.24796 9.2467 3.94311
77 3 3.29668 8.8169 0.24131
20 1 0.4109 9.67646 3.95177
107 3 9.87751 6.71761 5.53132
32 1 1.06417 7.98993 1.39217
33 2 5.90897 5.01314 0.341862
36 2 5.37868 10.0563 2.13861
39 2 9.59879 8.55161 1.42563
40 2 6.78055 6.20378 2.94085
41 2 1.99468 5.92649 2.73431
67 3 1.34712 10.7959 5.00053
111 3 10.7615 9.30044 0.569637
47 2 6.30436 3.76553 4.81747
75 3 4.30003 0.103004 5.05385
156 3 2.63421 7.10087 1.65168
50 2 9.60523 3.17398 3.81186
52 2 1.13081 1.11302 4.60854
57 2 7.27248 2.72962 1.9701
61 2 5.98731 0.297576 4.27626
155 3 4.27744 9.37336 3.04305
134 3 7.38384 5.63925 1.52351
160 3 8.04305 9.16031 1.15406
69 3 6.48575 8.88099 3.20662
70 3 4.94663 0.606999 3.01364
71 3 5.63634 3.83788 1.19433
25 1 4.18338 7.43878 1.15179
21 1 10.2718 6.81961 3.63507
139 3 9.24589 6.77562 1.79172
83 3 4.45175 5.58459 0.383481
78 3 5.55628 7.02623 2.45603
85 3 6.61413 2.49626 3.49189
87 3 4.71316 3.55609 4.26244
89 3 1.55436 9.60336 2.22173
92 3 8.13811 7.15039 3.70328
122 3 5.76145 9.48071 5.25743
159 3 7.16575 11.004 2.68676
99 3 9.91169 9.07318 3.08052
101 3 0.809251 0.497394 3.20002
103 3 9.55441 4.63128 2.65059
105 3 3.26638 2.25805 1.30873
108 3 1.08977 7.57425 3.807
115 3 9.30527 0.274261 1.26368
34 2 7.86304 10.8793 0.731492
121 3 6.76255 4.64489 3.55389
48 2 9.28225 5.39038 0.890391
2 1 0.938291 4.72412 5.31162
127 3 5.52873 8.95016 0.819356
110 3 10.3001 4.31075 0.0226911
129 3 7.83618 3.11504 0.530241
131 3 0.341457 2.23317 1.197
135 3 0.0276984 3.7099 4.05568
53 2 2.59438 10.2215 0.927465
138 3 2.97642 0.28904 2.46229
157 3 2.37531 2.21625 4.40089
141 3 2.45075 4.29552 1.64639
13 1 5.00537 1.64235 1.36323
38 2 2.79446 4.83285 0.180493
147 3 0.462574 6.0116 2.15385
148 3 8.93191 2.44555 2.58544
125 3 4.41925 10.8305 0.903418
152 3 8.37601 3.42667 4.86804
154 3 2.85413 9.08576 5.51927
42 2 5.345 8.2526 4.08488
116 3 6.91939 1.35006 1.26406
66 3 6.32832 7.08287 4.92126
112 3 2.5368 5.12151 4.07092
44 2 4.83234 6.02537 5.38887
146 3 9.92119 1.65647 4.59558
98 3 1.71165 6.05743 0.000678077
140 3 8.0187 9.91872 7.69127
3 1 4.3935 8.68928 7.60221
74 3 0.596157 5.51285 6.70189
7 1 9.66079 9.02822 7.1777
10 1 6.57459 1.58936 10.3569
12 1 7.25297 9.9522 9.40875
15 1 1.90213 1.66259 7.71828
82 3 2.8551 10.3415 7.30307
18 1 8.54995 4.3978 9.92266
8 1 8.50599 1.64656 6.06581
149 3 0.547545 8.55063 5.90764
27 1 4.44239 1.77024 8.79635
28 1 9.09068 4.32107 6.57901
29 1 2.43437 8.03292 9.55562
30 1 8.83932 6.93171 8.39648
158 3 7.98431 3.37731 7.71738
35 2 6.61467 2.76565 7.63364
37 2 5.89334 7.2113 9.31522
150 3 0.780674 9.25826 9.37483
43 2 9.9706 2.88243 8.26153
45 2 3.23273 1.91656 11.0349
62 2 11.0284 7.02665 6.38988
51 2 10.5403 8.88518 10.0125
142 3 2.70486 1.61259 9.48064
54 2 2.02412 10.6642 9.29689
55 2 4.97667 4.27249 9.0519
56 2 6.66656 9.75797 6.71935
59 2 1.67945 9.5471 6.7237
60 2 1.14773 4.39093 7.91446
63 2 9.98355 0.317482 9.5592
64 2 10.6996 0.801603 5.99758
65 3 4.20774 7.94166 9.15917
97 3 9.45278 2.07765 9.56134
68 3 3.49126 4.06553 9.75694
72 3 5.22999 10.4618 7.4636
84 3 8.5961 8.43828 5.6495
120 3 1.05085 1.87008 6.20477
76 3 5.13008 3.44806 7.88017
143 3 5.69268 4.69284 5.96332
96 3 10.8031 0.720021 10.801
80 3 6.12153 8.83724 9.66841
81 3 8.40918 5.98073 10.7606
86 3 0.86619 0.604645 8.88882
88 3 6.03946 8.25683 6.93356
90 3 0.495318 3.12739 8.78963
91 3 6.82106 1.36394 8.31527
113 3 10.3551 3.11567 6.77059
94 3 2.11118 7.98884 7.53679
49 2 4.22443 0.242754 6.62597
100 3 8.34725 0.271968 10.3149
46 2 4.91479 9.93897 10.6645
102 3 10.368 4.96459 8.58492
104 3 3.70539 10.4479 9.22241
106 3 6.33327 10.8968 11.0599
6 1 3.26164 6.40855 7.98754
109 3 9.80172 10.1306 8.91484
58 2 8.0337 7.032 5.60533
144 3 8.04025 5.83572 6.73449
126 3 6.42309 2.1885 6.02451
137 3 1.69249 5.63217 8.81114
114 3 3.77639 1.65899 6.83014
31 1 0.660488 2.14485 10.5927
117 3 2.03413 3.50528 6.85401
118 3 3.56253 5.919 6.40734
119 3 10.7207 7.36307 8.02227
153 3 4.94108 2.33776 10.4845
123 3 10.5153 7.55038 10.5881
124 3 6.93536 6.4784 8.45607
130 3 9.85137 0.959764 7.42786
132 3 4.98127 5.79694 8.94423
133 3 0.341353 10.4762 7.12013
26 1 0.212224 5.39187 10.0503
79 3 1.5877 3.77232 10.4246
95 3 6.40166 3.86891 9.58084
17 1 3.82385 3.49565 6.17434
73 3 8.57619 8.6897 10.2134
23 1 2.32324 7.13157 5.6303
145 3 1.95727 0.207292 11.0351
128 3 6.07921 6.86703 10.9715
ITEM: TIMESTEP
2500
ITEM: NUMBER OF ATOMS
160
ITEM: BOX BOUNDS xy xz yz pp pp pp
0.0000000000000000e+00 1.1150434355800000e+01 0.0000000000000000e+00
0.0000000000000000e+00 1.1150434355800000e+01 0.0000000000000000e+00
0.0000000000000000e+00 1.1150434355800000e+01 0.0000000000000000e+00
ITEM: ATOMS id type x y z
1 1 2.61132 8.62283 4.80284
48 2 8.35333 4.33804 0.435421
5 1 10.4543 0.415665 2.82862
151 3 10.4655 10.6319 4.66267
84 3 7.01004 10.3894 5.08814
11 1 0.380527 4.31394 0.967902
125 3 4.01022 0.669766 0.413908
14 1 4.75239 1.39577 2.65303
16 1 2.0418 0.898692 1.23364
87 3 5.08293 3.02838 4.89001
93 3 3.10949 6.77493 4.39511
22 1 3.58272 4.14377 3.78753
24 1 8.5091 9.37479 4.0515
145 3 1.42156 10.0094 1.47444
20 1 0.406216 8.76991 3.89103
106 3 6.39568 10.2938 1.97256
32 1 0.917442 8.01571 0.545078
33 2 4.93964 5.39305 1.64138
36 2 5.60541 8.66194 1.61315
39 2 9.11678 9.03008 1.41069
40 2 8.25455 5.37124 4.42904
41 2 2.26262 6.72092 2.91301
67 3 1.75296 10.1775 5.06074
75 3 3.58957 0.240783 5.34319
9 1 11.0681 10.7998 0.394675
28 1 0.326421 5.73824 5.01973
156 3 3.20473 7.02861 1.6831
50 2 9.24576 2.9032 3.29652
52 2 2.17049 0.620283 4.46686
57 2 6.94926 3.36587 1.73853
61 2 7.62849 0.83882 4.62484
155 3 4.19868 9.11342 1.85778
134 3 6.70317 4.99928 1.20032
160 3 7.55765 8.63161 1.1436
69 3 5.939 7.75452 2.94318
70 3 5.90626 0.626726 4.16091
71 3 5.19622 3.55023 2.15977
10 1 6.04432 1.21703 0.153458
21 1 10.1554 6.24475 2.59889
139 3 9.4035 5.74282 0.937189
42 2 4.83279 7.27549 4.22644
78 3 5.30849 5.86499 3.41073
85 3 7.87073 2.46944 4.03783
128 3 5.42344 7.31013 0.713577
89 3 2.12984 8.51517 3.19444
92 3 7.84447 6.88767 4.31925
122 3 4.42104 8.88026 4.66674
159 3 8.31253 11.1436 3.44327
99 3 9.6785 8.43748 2.86977
101 3 1.3292 0.852818 3.02494
103 3 8.50499 4.06584 2.05391
105 3 2.67983 3.0194 1.34434
108 3 0.519716 6.85942 3.61305
115 3 9.52564 10.6494 1.53988
34 2 7.74575 0.237907 1.86394
121 3 6.83552 4.79141 4.51201
107 3 9.70605 7.92705 5.25976
2 1 1.26451 2.7445 3.00652
66 3 5.84011 7.08095 5.41583
146 3 10.5281 2.19798 4.28467
83 3 4.08539 4.89925 0.344335
131 3 0.034484 2.13281 1.11475
135 3 10.7064 4.11408 2.77962
53 2 2.75314 9.87421 2.40062
138 3 3.62651 11.043 3.16351
157 3 3.0749 2.06471 4.27506
141 3 2.16755 5.0081 2.0609
13 1 5.36678 10.0587 3.53861
38 2 2.3265 5.52442 0.334666
147 3 0.182524 6.23184 1.13937
148 3 9.08629 1.78947 2.06501
116 3 6.67372 1.79057 2.0213
152 3 9.09817 4.07612 4.60531
112 3 2.08406 3.8467 4.81689
111 3 10.2524 9.0427 0.349049
49 2 5.13228 1.19228 5.45375
129 3 7.21586 3.16449 0.297013
19 1 7.10208 6.93915 0.391843
100 3 7.66721 0.32696 0.412576
127 3 5.67632 9.97568 0.0624355
110 3 9.93104 3.64008 0.123185
64 2 10.493 0.731446 5.53386
140 3 7.74773 8.57949 6.80111
3 1 3.82523 10.3225 7.14807
74 3 0.42081 7.02784 6.17175
7 1 8.19712 10.0325 7.78879
58 2 8.17298 7.57327 5.82738
12 1 7.44399 10.0873 10.2621
15 1 2.55052 1.60004 7.4973
82 3 1.96916 10.6277 8.0691
18 1 7.22319 4.36202 8.66656
44 2 5.48856 5.81708 6.34632
17 1 3.59966 3.59388 6.51992
27 1 5.54399 0.718314 8.23126
153 3 4.76633 2.68027 10.8756
29 1 1.742 8.98841 9.29639
30 1 8.43062 6.644 8.30058
158 3 8.17711 3.30846 6.93094
35 2 8.25876 1.8073 7.69926
37 2 5.69042 7.81921 8.55171
150 3 1.11111 10.5131 10.1647
43 2 9.96162 3.37508 8.44267
136 3 8.78909 1.17562 5.85184
62 2 10.5604 7.96835 6.77914
51 2 10.2583 8.34223 9.53785
142 3 2.37595 1.78999 10.4575
54 2 2.34538 0.278882 9.54483
55 2 5.24691 3.06913 9.42556
95 3 5.6629 4.60457 9.32744
59 2 1.44429 9.93835 6.52717
60 2 1.21338 4.45544 7.81164
63 2 0.0303845 0.0310261 8.78268
98 3 2.25647 6.82625 10.5626
65 3 4.62722 7.49439 9.48378
97 3 8.5232 2.89417 9.13732
68 3 3.5091 3.75798 9.27654
72 3 5.64685 10.8468 6.31891
56 2 6.02365 9.22323 6.22201
8 1 10.1282 3.2402 6.06183
76 3 6.25773 2.35329 8.4237
143 3 6.09261 4.20973 6.78805
96 3 10.4086 1.04658 9.886
80 3 5.22244 10.1612 8.76197
81 3 7.92633 5.30528 10.2591
86 3 1.2482 1.36871 8.75066
88 3 4.91732 8.52879 7.13718
90 3 0.24909 3.911 8.93648
91 3 7.75814 0.453403 8.5794
113 3 11.1491 4.72012 6.49898
94 3 0.265792 9.50185 8.3958
120 3 1.17989 0.988067 5.87711
25 1 3.70552 8.26489 11.1263
46 2 4.40277 10.7273 10.3495
102 3 9.37255 5.16674 8.06639
104 3 3.7892 0.917115 9.13972
23 1 2.24389 6.52574 6.61172
6 1 3.71611 5.86356 9.07326
109 3 9.29961 9.66535 9.10132
154 3 2.66381 8.78677 7.14764
144 3 8.13156 6.3079 6.45962
126 3 6.79155 1.7142 6.08333
137 3 1.99501 5.71973 7.9768
114 3 4.34729 1.57217 6.87785
31 1 0.34528 2.39081 10.2827
117 3 1.91836 3.23511 6.98824
118 3 3.99923 5.34057 6.43478
119 3 9.53124 7.93685 7.91975
77 3 3.00379 9.92885 10.2803
123 3 0.41506 7.63468 9.85639
124 3 7.02488 8.20543 9.305
130 3 10.0892 2.03153 7.58006
132 3 6.18287 6.50871 7.68191
133 3 10.5612 0.135133 7.13497
26 1 10.4194 5.8802 10.5572
73 3 9.30073 7.03098 9.86664
149 3 0.0776674 9.15319 6.07202
47 2 7.02979 3.24443 5.66056
45 2 3.25457 3.33412 10.9448