
160 atoms
3 atom types
   0.0000000000    9.8185313000 xlo xhi
   0.0000000000   10.1304725344 ylo yhi
   0.0000000000   14.1770723934 zlo zhi
   0.0000000000    0.0000000000    0.0000000000 xy xz yz

Atoms # atomic

     1      1    2.5147272857    2.8070793394    1.6799429955
     2      1    2.5919831301    2.9168313621    9.0203837246
     3      1    2.6264303178    7.9518912146    1.5921062798
     4      1    2.4539982460    7.7210940246    8.7356292526
     5      1    7.3616231172    2.7662320149    1.4278188982
     6      1    7.6692425940    2.8163285693    8.8620216309
     7      1    7.2024764906    7.8686791138    1.8043430732
     8      1    7.5835117297    7.6511880146    8.7553045118
     9      1    2.4570537952    2.2011309070    5.2232445189
    10      1    2.6177591648    2.4727031619   12.3444186270
    11      1    2.2910425058    7.1728913423    5.3612087574
    12      1    2.5546455580    7.3427943278   12.2991015296
    13      1    7.2023422942    2.1520150187    5.1887973312
    14      1    7.2169903491    2.5344335132   12.5867980000
    15      1    7.3976909847    7.3244094188    5.2582078467
    16      1    7.2414966793    7.3368380715   12.2880561323
    17      1    9.7746604880    4.9036402699    5.2638544190
    18      1    0.2508409731    4.9075526116   12.2577070966
    19      1    0.0254073042    9.8858783484    5.4807467957
    20      1    0.0330528870    9.9518926623   12.3924196527
    21      1    5.0788491753    4.8695027662    5.4007244405
    22      1    4.8484855429    4.7696916011   12.4502273396
    23      1    4.7715806737   10.0517760871    5.5085564222
    24      1    5.1339729338   10.0057054252   12.4441368869
    25      1    4.4824493340    0.2459593204    1.6166745468
    26      1    4.8340645896    0.5064201120    9.0908058746
    27      1    4.7962315231    5.3641404329    1.5386651379
    28      1    4.8256308610    5.4546094630    8.7738649084
    29      1    0.1350377243   10.0934905268    1.8242970480
    30      1    9.7201560974    0.3291456142    9.1613828667
    31      1    0.2078392800    4.8866695847    1.6006948505
    32      1    9.7483579904    5.2714107095    8.7187514726
    33      2    2.5049928841    0.0933729372    3.6024924657
    34      2    2.4370069152    0.0211683491   10.5558900853
    35      2    2.5659696710    4.9614582796    3.6747004603
    36      2    2.3682157678    5.1944955175   10.6339304626
    37      2    7.3723278621   10.0610356398    3.6189676564
    38      2    7.4782398028    0.0872279801   10.6499308045
    39      2    7.2101876231    5.1381123771    3.5533869002
    40      2    7.4291961741    5.1427782833   10.5129472322
    41      2    4.8979833748    2.4556808626    3.6846722863
    42      2    5.1138641170    2.6041950040   10.6254657656
    43      2    4.9169050695    7.7238915037    3.4778136724
    44      2    4.9682816512    7.6106503742   10.4489458645
    45      2    0.0068129972    2.4549066525    3.5580837747
    46      2    0.0259719614    2.7438728275   10.4796045842
    47      2    0.0839829043    7.4843509011    3.4644249992
    48      2    0.0705540754    7.5460915753   10.7227065532
    49      2    2.4244440661    0.0450478788   13.8826192388
    50      2    2.4008977565    0.0194666353    7.2914074232
    51      2    2.3049679646    4.9728752978    0.0760838968
    52      2    2.3914936846    4.8895496462    7.1436468464
    53      2    7.2963520450   10.0421862047    0.1476377355
    54      2    7.3807719135    9.9932664497    7.1850206337
    55      2    7.2787413461    5.2857903716   14.0134091304
    56      2    7.2768729191    5.0765781590    7.0716762762
    57      2    4.8211507653    2.4829743491    7.3665058022
    58      2    4.8482068273    2.3904097904    0.1350862415
    59      2    4.6900098984    7.6338766770    7.0221371531
    60      2    4.9114752761    7.7318400607   14.1394505335
    61      2    9.8082405604    2.6502656659    6.9931713728
    62      2    0.0720280682    2.6947672620   14.1285083642
    63      2    0.0670651751    7.7424725459    7.1305678572
    64      2    0.0697441484    7.5496942329   14.1630897483
    65      3    0.4148713170    2.5548004001    1.6045246097
    66      3    0.3509380799    2.6148378120    8.8937435991
    67      3    0.6784279167    7.4285355148    1.7270149692
    68      3    0.4263275618    7.4643762807    8.9261468722
    69      3    5.3668140385    2.2188138655    1.7792173750
    70      3    5.6172451964    2.2799971084    8.9319689321
    71      3    5.4339948289    7.4352453356    1.7736327395
    72      3    5.2817231879    7.4869006330    8.8195536266
    73      3    4.5342904418    2.5921586177    5.4576030753
    74      3    4.6539523537    2.3549199998   12.4799570072
    75      3    4.6743605317    7.7063014504    5.1572198822
    76      3    4.4188092644    7.7496262472   12.3915938286
    77      3    9.3465326296    2.5703465387    5.2719062039
    78      3    9.4624370418    2.8899817561   12.3756967147
    79      3    9.4759495887    7.5417043847    5.4934025500
    80      3    9.2788356991    7.4826579617   12.3725998744
    81      3    2.7141534827    0.2942741593    5.3538795685
    82      3    2.8455214512    0.0782277362   12.2803140313
    83      3    3.0126269576    4.9133230575    5.3732038524
    84      3    2.7529568925    5.2711526394   12.4543564601
    85      3    7.8549601110    9.9236701238    5.5198185984
    86      3    7.6918185603    0.0522950014   12.5090673067
    87      3    7.5181683979    5.2061809285    5.4004457249
    88      3    8.0235108095    5.1312786827   12.3183019399
    89      3    1.9050316764    4.9063654895    1.8152852425
    90      3    1.8909513755    4.9323479802    8.7822573458
    91      3    2.0208638291    9.9307825338    2.0390835732
    92      3    1.9074265663    9.9049342395    8.8726025022
    93      3    6.8859587592    5.0646346780    1.7402281547
    94      3    7.0928586643    5.0882326016    8.8762774194
    95      3    6.8134514033    9.9249191827    1.9731002278
    96      3    6.7923206292   10.0324621260    8.8464858150
    97      3    1.0999151170    1.1819297728    3.5703266170
    98      3    0.9771666876    0.9613005421   11.0638751340
    99      3    0.9503232752    6.0618998595    3.8670968297
   100      3    0.9435019682    6.1137822585   10.8270700737
   101      3    6.1855257271    1.0727971182    3.9698706388
   102      3    5.8815914904    0.9734608019   10.8068373833
   103      3    5.6721521762    5.7984206808    3.7715076902
   104      3    5.7711271944    6.0187505504   11.1589481334
   105      3    3.8216145674    3.9105145317    2.9664014536
   106      3    3.9955434454    4.0824614318   10.4157064445
   107      3    4.0976875636    9.3704195916    3.4270771043
   108      3    3.9469746656    9.1492535752   10.2276043605
   109      3    8.7945621248    3.9628717795    3.1392980515
   110      3    8.8204517103    4.2046317844   10.1346888266
   111      3    9.0293852073    9.2168782461    3.2146854689
   112      3    8.9722175341    9.2527293348   10.4134354283
   113      3    3.4454000765    1.5836828740    3.2379220945
   114      3    3.1770382128    1.5610036797   10.1695179579
   115      3    3.3623944318    6.7964600725    3.1885274906
   116      3    3.4189530597    6.5208928936   10.0552135799
   117      3    8.4509367174    1.5664437960    2.9505146626
   118      3    8.3627180580    1.6987614622   10.5743678995
   119      3    8.4787463439    6.4555392390    3.2965143143
   120      3    8.4427404132    6.7535378650   10.3684280149
   121      3    1.4173722234    3.6527645077    4.0146715961
   122      3    1.6620019670    3.5986936748   10.9825314603
   123      3    1.4599744240    8.7324395070    4.0668430335
   124      3    1.6324684327    8.6254333494   11.0090610594
   125      3    6.2391113883    3.4428400218    3.9158514199
   126      3    6.4835243531    3.5509920103   11.1432574755
   127      3    6.5739108007    8.3956890852    3.9936956640
   128      3    6.4708376304    8.4726765368   11.0180418965
   129      3    3.8721343567    3.9674757489   14.1066240256
   130      3    3.9113713242    4.0718495921    7.6129420361
   131      3    3.8183009482    9.0956163000    0.4394437131
   132      3    3.7413547878    9.1103366146    7.3256688005
   133      3    8.7663086179    4.2262270846    0.2757911837
   134      3    9.1733779617    4.1173421772    7.2252382673
   135      3    8.7532605971    9.0902897346    0.5394375918
   136      3    8.7698080475    9.1067339569    7.4880361411
   137      3    0.9015015868    0.8499206136    7.1731494123
   138      3    0.9115848990    0.8528749993   13.8999615449
   139      3    0.8607512966    5.8332911034    6.9691089231
   140      3    0.8177392807    5.9331848509   13.9210200594
   141      3    5.8679963612    1.1397301614    6.6970102054
   142      3    5.7422336737    0.9651127526   13.9032648413
   143      3    5.7522984049    5.9946984235    7.0339877289
   144      3    5.8995738101    6.2171547901   13.8888129195
   145      3    1.4536568697    3.4502724387    6.6316668736
   146      3    1.4778844842    3.4665721418   13.5163662510
   147      3    1.3711363966    8.5758632579    6.5250116913
   148      3    1.6256450610    8.4980086910   13.8189275552
   149      3    6.6567512806    3.6639441014    7.0003044285
   150      3    6.3069631608    3.4912539596   13.8467991185
   151      3    6.3022353178    8.5615765010    6.7857140364
   152      3    6.3668973448    8.6774602676   13.8025143012
   153      3    3.3451347081    1.4646093618    0.2846791156
   154      3    3.2686117826    1.5527351159    7.4208759963
   155      3    3.4153916933    6.4180158565    0.3934164069
   156      3    3.4286358473    6.4154351562    7.2663539846
   157      3    8.2298636062    1.5478317853   14.1692834291
   158      3    8.2489814341    1.5096270980    7.6019998667
   159      3    8.3358890976    6.7834120517    0.2919701101
   160      3    8.4152507935    6.5026318582    7.5162690025
