LAMMPS (29 Oct 2020)
variable    T equal 4050   # temperature in K
variable    P equal 400000.00 # P in bar
variable    V equal vol
variable    dt equal 0.001  # ps

variable    NSWeq equal 10000 # equil run step


# calculate fparam for deepmd potential
variable    kBeV equal 8.617333262e-5    # eV/K, Boltzmann
variable    TeV equal  ${T}*${kBeV}
variable    TeV equal  4050*${kBeV}
variable    TeV equal  4050*8.617333262e-05

# convert from LAMMPS metal units to SI
variable    kB equal 1.3806504e-23       # [J/K] Boltzmann
variable    ev2j equal 1.60218e-19
variable    A2m equal 1.0e-10
variable    ps2s equal 1.0e-12
variable    convert equal ${ev2j}*${ev2j}/${ps2s}/${A2m}
variable    convert equal 1.60218e-19*${ev2j}/${ps2s}/${A2m}
variable    convert equal 1.60218e-19*1.60218e-19/${ps2s}/${A2m}
variable    convert equal 1.60218e-19*1.60218e-19/1e-12/${A2m}
variable    convert equal 1.60218e-19*1.60218e-19/1e-12/1e-10


units           metal
boundary        p p p
atom_style      atomic

neighbor        2.0 bin
neigh_modify    every 10 delay 0 check no

read_data       conf.lmp
Reading data file ...
  triclinic box = (0.0000000 0.0000000 0.0000000) to (11.150434 11.150434 11.150434) with tilt (0.0000000 0.0000000 0.0000000)
  1 by 1 by 2 MPI processor grid
  reading atoms ...
  160 atoms
  read_data CPU = 0.001 seconds
mass            1 24.305
mass            2 28.085
mass            3 15.999
#mass            4 2.0156
#read_restart    poly.restart.1140000
pair_style      deepmd /u/project/ESS/lstixrud/jd848/pv_hf_copy/pvh/m12/v3/pv.pb fparam ${TeV}
pair_style      deepmd /u/project/ESS/lstixrud/jd848/pv_hf_copy/pvh/m12/v3/pv.pb fparam 0.349001997111
#pair_style      deepmd /u/project/ESS/lstixrud/jd848/pv_hf_copy/pvh/m12/v3/m12v3.comp.pb fparam ${TeV}
pair_coeff



velocity        all create $T 23456789
velocity        all create 4050 23456789
#fix             1 all nvt temp $T $T 0.04
fix             1 all npt temp $T $T 0.04 iso $P $P 0.4
fix             1 all npt temp 4050 $T 0.04 iso $P $P 0.4
fix             1 all npt temp 4050 4050 0.04 iso $P $P 0.4
fix             1 all npt temp 4050 4050 0.04 iso 400000 $P 0.4
fix             1 all npt temp 4050 4050 0.04 iso 400000 400000 0.4
timestep        ${dt}
timestep        0.001
thermo          1
thermo_style    custom step pe ke enthalpy etotal temp press vol pxx pyy pzz pxy pyz pxz
dump            2 all custom 500 npt.dump id type x y z
restart 10000  poly.restart
run             ${NSWeq}
run             10000
Neighbor list info ...
  update every 10 steps, delay 0 steps, check no
  max neighbors/atom: 2000, page size: 100000
  master list distance cutoff = 8
  ghost atom cutoff = 8
  binsize = 4, bins = 3 3 3
  1 neighbor lists, perpetual/occasional/extra = 1 0 0
  (1) pair deepmd, perpetual
      attributes: , newton on
      pair build: full/bin/atomonly
      stencil: full/bin/3d
      bin: standard
Per MPI rank memory allocation (min/avg/max) = 3.882 | 3.882 | 3.882 Mbytes
Step PotEng KinEng Enthalpy TotEng Temp Press Volume Pxx Pyy Pzz Pxy Pyz Pxz 
       0   -1043.9214     83.23707   -604.98543    -960.6843         4050    411071.62    1386.3579    426418.57    389869.16    416927.13    5500.3736    76215.317   -22706.832 
       1   -1045.2872    84.593441   -608.42436   -960.69376    4115.9958    407107.59    1386.3602    422898.12    382052.22    416372.45    4936.5003    74229.886   -21893.322 
       2   -1046.3333    85.631601   -612.53934   -960.70169    4166.5088    402359.65    1386.3655    418753.69    374252.47     414072.8     5323.597    71742.179   -20098.698 
       3   -1046.9828    86.274779   -616.62436   -960.70798    4197.8034    397644.16    1386.3719    414213.05    367734.07    410985.35     5607.862    69583.702   -17616.676 
       4   -1047.2309    86.519418   -619.68628   -960.71148    4209.7066    394108.07    1386.3775    412959.33    362343.44    407021.43     5906.229    67226.577   -15286.958 
       5    -1047.152    86.436561   -622.82032   -960.71542    4205.6751    390489.77     1386.381    411830.79    356011.84    403626.67    5840.3719    64063.287   -13496.445 
       6   -1046.8887    86.167497    -625.6176   -960.72125    4192.5834    387263.86    1386.3808    410932.17    351044.69    399814.73    5769.4918    60450.297   -11946.226 
       7    -1046.621    85.892841   -627.91046   -960.72812    4179.2197    384623.49    1386.3757    411191.36    345344.53    397334.58    6439.5418    56442.992   -11145.671 
       8   -1046.5263    85.785474   -630.06879   -960.74081    4173.9956    382146.92    1386.3645    410964.69    340511.48    394964.59    7605.9514    52146.482   -11954.276 
       9   -1046.7256    85.962141    -631.8152   -960.76349    4182.5916    380159.82    1386.3464    411669.21    335823.96    392986.28    8788.6564    48180.465   -13998.049 
      10   -1047.2487    86.455496   -633.38285   -960.79317    4206.5964    378389.48    1386.3206    411861.29    331094.18    392212.96    9909.4005    44811.088   -16744.942 
      11   -1048.0368    87.207757   -633.73968   -960.82902    4243.1986     378027.9    1386.2862    413588.08    327408.43    393087.18    11993.688    42371.587    -20257.67 
      12   -1048.9706    88.098259   -633.48595   -960.87238     4286.527    378382.98    1386.2432    416225.85    325665.25    393257.84    13342.917    40482.054   -22969.896 
      13    -1049.904    88.980865   -633.31955   -960.92317    4329.4712    378648.07    1386.1917     418265.1    324630.76    393048.33    13645.604    39204.923   -25364.944 
      14   -1050.6784    89.704988   -632.57763   -960.97343    4364.7043    379580.07    1386.1319    420850.45     323302.8    394586.96    14480.428    37610.242    -26899.28 
      15   -1051.1937       90.165   -631.14861   -961.02874    4387.0868    381314.41     1386.064    423858.27    323644.64    396440.33    13870.841    36754.462   -26437.386 
      16   -1051.3994    90.307814   -629.26338   -961.09164    4394.0355    383587.08    1385.9889    427247.36    324947.21    398566.68    13533.489    36856.771   -25572.463 
      17   -1051.2751    90.118106   -626.90547     -961.157    4384.8051    386411.09    1385.9073    432240.39     326865.6    400127.29    12162.556     37458.69   -23328.084 
      18    -1050.855    89.617361   -622.80712    -961.2376    4360.4407    391266.66    1385.8205    438972.57    329589.04    405238.38    11945.312    38449.909   -18820.887 
      19   -1050.1599    88.842999     -618.315   -961.31691    4322.7632    396577.59    1385.7303    445452.22     333616.3    410664.25    11704.208    39612.369   -13804.584 
      20   -1049.2724    87.866965   -614.07258   -961.40541    4275.2731    401611.47     1385.639    452504.97    337445.61    414883.82    11324.359    40727.094   -9148.2006 
      21   -1048.2899     86.79147   -610.17833   -961.49845    4222.9436     406248.4    1385.5485    458207.25    342205.53    418332.43    11916.708    42235.503   -3934.3098 
      22   -1047.3352    85.741689   -606.62582   -961.59353    4171.8652    410492.32    1385.4606    462867.87    346931.61    421677.49    13283.033    43982.252    1141.6518 
      23   -1046.5437    84.841317   -603.71397   -961.70236    4128.0566    414010.46     1385.377    465609.83    350627.53    425794.01    14550.933    46338.781    6176.6877 
      24   -1045.9719     84.15872   -601.26435   -961.81314     4094.844    416994.94    1385.2993    465994.09    355456.32    429534.41    14719.988    48123.892    11416.812 
      25   -1045.6275    83.693639   -600.23257    -961.9339    4072.2149    418349.32    1385.2284    464477.69    359368.94    431201.32    13432.595    49457.763    16139.401 
      26   -1045.4468    83.383316   -601.29699   -962.06345    4057.1158    417287.11    1385.1651    460908.88    361972.36    428980.09    11163.472    49630.432    20236.202 
      27   -1045.3284    83.136924   -602.20785   -962.19149    4045.1273    416398.56    1385.1088    457895.33    365316.01    425984.34    7930.5107    50013.565    25016.011 
      28   -1045.2024    82.882027   -604.97273   -962.32033    4032.7249     413364.2    1385.0593    452844.32    367218.17     420030.1    3886.9235    49966.647    29247.065 
      29   -1045.0175    82.563821   -606.99426    -962.4537    4017.2423    411193.15    1385.0152    449707.51    370091.55    413780.37   -1273.5998    49243.075    31761.095 
      30   -1044.7088     82.12002   -607.79584   -962.58881    3995.6486    410433.88    1384.9757    448571.82    373836.66    408893.16   -6884.4107    47266.554    33547.878 
      31   -1044.2248    81.502456   -608.94483   -962.72237    3965.6002    409269.58    1384.9406    447111.06    376080.59    404617.11   -12545.934    44339.397    34736.949 
      32   -1043.5618    80.712164    -610.5903   -962.84959    3927.1477    407522.39    1384.9093    445342.93    377234.22    399990.03   -18425.116    40732.469     35756.22 
      33   -1042.8013    79.827997   -612.73408   -962.97333    3884.1274    405193.67    1384.8812    443223.91    375310.14    397046.95   -23661.623    36796.331    36291.504 
      34   -1042.0691    78.972643   -614.61786   -963.09648    3842.5091    403164.33    1384.8553    440403.95    373848.08    395240.95   -25699.313    32199.857    36265.481 
      35   -1041.4849    78.267589   -616.22497   -963.21733    3808.2039    401451.93    1384.8308    437202.69    373290.86    393862.25   -29316.189    29202.607    36214.813 
      36   -1041.1409    77.800346   -617.13502   -963.34052    3785.4696    400548.44    1384.8071    433873.31    373479.19    394292.82   -30976.491     27616.92    34832.328 
      37   -1041.0441    77.580153   -619.26465   -963.46399    3774.7559    398234.12    1384.7837     427514.5    373332.98    393854.88   -31928.872    26303.481    32964.908 
      38   -1041.1243    77.539999   -620.90326   -963.58429    3772.8021    396484.31    1384.7597    422523.05    372576.49     394353.4   -32377.554    25680.132    29820.998 
      39   -1041.3035    77.606512    -621.7333   -963.69699    3776.0384    395661.55    1384.7345    418132.73    372835.96    396015.96   -31959.201    26880.548    26668.183 
      40   -1041.5498    77.746034   -623.00307   -963.80381     3782.827    394323.61    1384.7077    412128.39    373847.45    396994.99   -31011.315     28948.81    23638.931 
      41   -1041.8804    77.977299    -623.4569   -963.90306    3794.0795    393921.58    1384.6788    407710.04    375155.71    398898.99   -29602.403    31963.215    21002.469 
      42    -1042.359    78.358132   -624.47425    -964.0009    3812.6094    392866.49    1384.6475    402953.37    374838.21    400807.87   -27311.644    35643.684    18331.129 
      43   -1043.0111     78.91167   -625.44362   -964.09941    3839.5424    391868.42    1384.6136     397950.2    373285.04    404370.01   -25081.898    39823.324    16501.271 
      44   -1043.8027    79.601458   -625.13693   -964.20122    3873.1049     392351.6    1384.5766    396226.25    372061.32    408767.22   -21647.888    44797.329    15154.451 
      45   -1044.6276    80.320958   -625.27263   -964.30664     3908.113    392327.88    1384.5367    393572.76    370715.16    412695.72    -17040.05    49485.366    15340.505 
      46   -1045.3044    80.890727   -625.16818   -964.41365    3935.8358    392584.73    1384.4938    391169.95    369889.73    416694.51   -12039.508    53939.872    17088.222 
      47   -1045.6358    81.121152   -623.73764   -964.51464    3947.0474    394370.07    1384.4481    390450.97    370604.04    422055.19   -7552.9662    57845.677    18921.368 
      48   -1045.4846    80.871809   -621.73299    -964.6128    3934.9153    396817.27    1384.4004    391003.55    371945.26       427503   -3436.6109    61440.844    21563.047 
      49   -1044.7904    80.092376   -619.76115   -964.69804    3896.9911    399212.04    1384.3515    391831.42    372536.31    433268.39   -50.619366    64467.779    24777.434 
      50   -1043.6404     78.86327   -616.46117    -964.7771    3837.1875    403137.05    1384.3024    396145.83    373562.46    439702.87    3022.3888    65647.127    28917.878 
      51    -1042.245    77.399173   -613.51796   -964.84587    3765.9501    406637.09    1384.2547    399568.12     376040.7    444302.45    4486.5116    64948.285    32098.706 
      52   -1040.8975    75.984611   -611.25557   -964.91285    3697.1229    409346.46    1384.2098    403379.16    378673.67    445986.54    4863.9294    62916.429    34266.153 
      53   -1039.8355    74.854472   -609.90219   -964.98104    3642.1346    411004.06    1384.1688    408044.42     381069.1    443898.66    4471.8607    59845.575    35573.728 
      54   -1039.1866    74.135133   -609.79438   -965.05146    3607.1342    411221.21    1384.1323    411559.06    382418.08    439686.48     2604.325    55648.043    35446.517 
      55   -1038.9654    73.848063   -609.86529   -965.11729    3593.1665     411224.8    1384.1004    416179.44    382978.36     434516.6    1648.9496    50291.845    34867.984 
      56   -1039.1264    73.950746   -610.92816   -965.17562    3598.1627    410070.08    1384.0731    418438.46    382898.18     428873.6    1318.8214    44514.627    33628.132 
      57   -1039.6399    74.417077   -613.22148   -965.22287    3620.8526    407476.87      1384.05    420688.17    380181.91    421560.53    982.31158    38836.938    31862.853 
      58   -1040.5141      75.2512   -617.22184   -965.26295    3661.4378    402898.28    1384.0299    418603.64    376774.73    413316.49    44.241748    33724.024    30476.659 
      59   -1041.7407    76.436948   -620.90863   -965.30371    3719.1318    398682.96    1384.0112    414910.05    373952.27    407186.56   -436.78807    29206.941    30749.236 
      60   -1043.2355    77.889801   -624.26874   -965.34569    3789.8222    394847.24    1383.9921    411148.04    371321.57    402072.12   -615.49806    25527.403    31631.836 
      61    -1044.836    79.451831   -626.94768   -965.38412    3865.8246    391796.42    1383.9711    405251.85    371424.36    398713.04   -655.12817     23410.59    31950.937 
      62   -1046.3482    80.930334   -630.11946   -965.41786    3937.7629    388170.38     1383.947    398056.57     371807.5    394647.08   -521.77294    22305.872    33504.332 
      63   -1047.5913    82.140435   -632.87014   -965.45085    3996.6419    385032.15    1383.9182    390151.75    374487.53    390457.16   -546.89861    21948.153    34925.785 
      64   -1048.4029    82.928087   -635.32884   -965.47481     4034.966    382222.96    1383.8837    382951.96    377469.94    386246.97   -368.35189    22281.128    35614.502 
      65    -1048.705    83.215409   -637.28176   -965.48955    4048.9461    379990.44    1383.8422    377325.14    379859.76    382786.43    136.37717    23330.597      36011.6 
      66   -1048.5326    83.033074   -637.05084    -965.4995    4040.0743    380282.87    1383.7929    374089.39    385437.73    381321.48   -460.59374    24207.772    35244.958 
      67   -1048.0003    82.490417   -636.58665    -965.5099    4013.6707    380848.06    1383.7358    372326.62     390023.6    380193.96   -1936.7197     25891.83    34237.395 
      68   -1047.2379    81.719685   -636.69066   -965.51819    3976.1698    380754.99    1383.6713    371015.61    392674.23    378575.13     -4450.72    26440.471    33667.051 
      69   -1046.3931    80.869705   -635.33748   -965.52344     3934.813    382347.86    1383.5992    369975.12    397741.13    379327.32   -7885.2445    26815.966    32305.052 
      70   -1045.6093    80.080171   -634.03562   -965.52909    3896.3973    383883.85    1383.5202    371158.36    400712.96    379780.24   -10152.105    26660.506    30342.537 
      71   -1044.9768    79.442272   -632.87374   -965.53455    3865.3595    385259.43    1383.4349    371868.59    402496.39    381413.31   -12818.769    25667.472    28709.899 
      72   -1044.5326    78.995959   -631.01444   -965.53661    3843.6436     387440.6    1383.3438    372895.47    405183.42    384242.93    -16279.94    23958.868    26076.383 
      73   -1044.2763    78.739337   -629.73131   -965.53697    3831.1574    388954.11    1383.2478    374828.75    406057.19     385976.4   -19576.929    20951.389    23943.536 
      74   -1044.1673    78.633327   -628.65093     -965.534    3825.9993    390230.32    1383.1476    378161.89    406389.56     386139.5   -23047.154    17990.113    20953.358 
      75   -1044.1289    78.603566   -627.83932    -965.5253    3824.5513    391189.79    1383.0436    380513.47    407363.58    385692.32   -26992.527    15039.819    18458.801 
      76   -1044.0957    78.588513   -625.49312   -965.50723    3823.8188     393917.4    1382.9362    385672.33    409974.84    386105.02   -28862.716    11971.108    15984.577 
      77   -1044.0396    78.557989   -623.89923   -965.48159    3822.3336    395765.68    1382.8264     391882.9    411734.35    383679.78   -30300.546    9143.3637    13629.612 
      78   -1043.9579    78.515108   -622.47573   -965.44283    3820.2472    397402.06    1382.7151    398158.36    413503.36    380544.45    -31935.99    6852.7393    11879.254 
      79   -1043.9258    78.526796   -622.25683   -965.39902    3820.8159    397637.22    1382.6029    403119.42    412975.33    376816.91   -31504.255    4362.2696    11826.528 
      80   -1044.0466    78.699929   -621.85741   -965.34663    3829.2399    398071.92    1382.4898    408603.63    411105.15    374506.98    -30687.52    3336.4517    13250.569 
      81   -1044.3904    79.090804   -621.40491   -965.29956    3848.2584    398574.57     1382.376    413840.37    409080.37    372802.96   -28614.381    3399.4685    15709.849 
      82   -1044.9029    79.651565   -622.12358   -965.25136    3875.5429    397718.62    1382.2618    417158.44     405101.1    370896.32   -25782.178    5591.8705    18078.737 
      83   -1045.4455     80.24543   -622.55088   -965.20002    3904.4381    397196.88    1382.1468    420501.79     401347.4    369741.45    -23234.28    8199.2931    21041.435 
      84   -1045.8337    80.692739   -622.20121   -965.14092    3926.2025    397567.08    1382.0308    424610.69     398264.5    369826.06   -20772.778    12064.121    24507.556 
      85   -1045.9172    80.845935      -622.69   -965.07124    3933.6564    396953.22    1381.9139    427867.72       393853    369138.96   -18789.738    16247.312    28160.886 
      86   -1045.6381    80.655879    -621.9188   -964.98226     3924.409    397778.15    1381.7959    432646.08     389750.1    370938.26   -17833.197    20236.397    30557.634 
      87    -1045.105    80.223608    -621.4586   -964.88137    3903.3764    398228.99    1381.6771     437461.9    386851.24    370373.84   -17249.371    23536.413    32840.985 
      88   -1044.5522    79.782313   -619.13729   -964.76991    3881.9046    400826.14    1381.5578    443054.24    386691.55    372732.63   -15814.157    26380.884    34911.514 
      89   -1044.2533    79.595146   -617.12124   -964.65818    3872.7978    403069.26    1381.4388    447022.71    388051.02    374134.04   -14980.288    29503.513    36803.562 
      90   -1044.3968    79.843602   -618.23761   -964.55319    3884.8867    401686.96    1381.3212    446204.69    387261.87     371594.3   -14692.904    31631.961    39080.828 
      91   -1044.9902    80.541702   -619.82584   -964.44852    3918.8536    399757.21    1381.2043    442511.11     386639.8     370120.7   -13859.551    33181.174    40004.922 
      92   -1045.8807     81.53701    -622.1072    -964.3437    3967.2815    397022.86    1381.0874    434809.35    386834.47    369424.75   -14263.633    33490.856    40893.146 
      93   -1046.8166    82.586134   -625.30908   -964.23049    4018.3279    393210.66    1380.9695    424214.18    386273.67    369144.12   -14136.858    33131.515     43794.17 
      94   -1047.5647    83.461774   -627.97735   -964.10293    4060.9332    390001.03    1380.8489    413073.32     385442.4    371487.36   -13045.291    31853.841    47290.852 
      95   -1047.9891    84.025171     -629.851   -963.96398     4088.346    387700.77    1380.7245    402484.48    385712.66    374905.19    -12068.37     28938.06    51015.675 
      96   -1048.0608    84.245781    -632.0868   -963.81502      4099.08    384969.56    1380.5953    390816.63    386053.81    378038.23   -11500.904    26194.558    54718.881 
      97   -1047.8271    84.162649   -633.05629   -963.66446    4095.0351    383707.27    1380.4602    381216.44    386387.37       383518   -12060.484    23774.733    57508.795 
      98   -1047.3411    83.831608   -633.62042   -963.50951     4078.928    382911.94    1380.3188    374041.52     385299.2     389395.1   -13496.592    20341.389    60053.023 
      99   -1046.6638     83.31454   -632.70894   -963.34925    4053.7694    383825.09    1380.1707    369692.15    385491.88    396291.25   -14250.879    18217.906    63055.189 
     100   -1045.8629    82.677081   -631.69016   -963.18587     4022.753    384861.16    1380.0162    366236.31    385506.57     402840.6   -13995.527    17150.933    64565.396 
     101    -1045.006    81.989718   -630.71042   -963.01632    3989.3085    385846.63    1379.8558    362985.86    384864.13    409689.91   -13340.028    17007.161     66178.39 
     102   -1044.1811    81.335787   -628.85144   -962.84531    3957.4907    387853.21    1379.6898    360307.95    386323.31    416928.38   -12435.731    18482.562    67007.682 
     103   -1043.4675      80.8056   -625.96723    -962.6619    3931.6939    391037.92    1379.5192    360747.82    388916.64     423449.3   -10786.621    20061.685    66043.392 
     104   -1042.9806    80.512097   -622.95079    -962.4685    3917.4131    394366.39     1379.345    361472.29    392609.45    429017.41   -8603.6603    22610.341    63770.528 
     105   -1042.8483      80.5703    -619.9862     -962.278    3920.2451    397639.47    1379.1686       360937    397320.54    434660.86   -6149.3926    26336.602    60409.534 
     106   -1043.1019    81.018181    -617.0987   -962.08367    3942.0372    400819.61    1378.9914    360351.73    403365.05    438742.06   -4629.7979    29477.024    56004.436 
     107   -1043.6851    81.798012   -615.39151   -961.88705    3979.9809    402626.29    1378.8146    358575.21    408365.94    440937.72    -5326.496     32868.21    51360.982 
     108   -1044.4546    82.766286   -613.09068    -961.6883    4027.0934    405120.53    1378.6389     358047.7    414552.35    442761.52   -6418.1391    36675.279    46279.104 
     109   -1045.2148    83.734794   -609.65837   -961.48003    4074.2173    408918.82    1378.4653    359278.43    422504.02    444974.02   -8577.3658    40320.399    42624.231 
     110   -1045.7994    84.533614   -606.24852   -961.26581    4113.0849    412683.99    1378.2952    361393.98    428938.24    447719.74   -12182.984    43917.428    39326.596 
     111   -1046.0809    85.039403   -603.15188   -961.04154    4137.6947    416072.71    1378.1303    363034.47     435584.8    449598.87   -15702.882    46713.793    35735.267 
     112   -1045.9958    85.179352   -598.26466   -960.81644    4144.5041    421541.25    1377.9717    365894.01    444275.56    454454.19   -19893.893    49249.494    34555.839 
     113   -1045.5273    84.938614   -593.57969   -960.58865    4132.7907    426770.08    1377.8218    369587.31    452495.31    458227.61   -24831.476    51833.106    34788.405 
     114   -1044.7015     84.34269   -589.46276   -960.35883    4103.7953    431333.73    1377.6826    372759.89    459670.17    461571.14   -29945.357    53884.314    34969.205 
     115   -1043.5894    83.458545   -584.59007   -960.13083    4060.7761    436775.49    1377.5558    378161.39    467394.91    464770.17   -34521.364    55692.482    35438.086 
     116    -1042.298    82.393019   -578.58291   -959.90502    4008.9317    443535.64    1377.4436    385247.91    476972.45    468386.56   -37227.924    56398.349    36258.709 
     117    -1040.943    81.262861   -573.08384   -959.68015    3953.9425    449701.31    1377.3487     391421.3    486007.78    471674.85   -39069.248    55867.157    37624.057 
     118   -1039.6421     80.18168   -568.38734   -959.46039    3901.3363    454933.62    1377.2736     396851.3    495169.97     472779.6   -40579.502    56249.018    39515.365 
     119   -1038.4938    79.248255    -564.6452   -959.24559    3855.9194    459054.74    1377.2202       402218    502352.25    472593.98   -41624.919     55664.87    39172.757 
     120   -1037.5622    78.533639   -562.27773   -959.02853    3821.1489    461566.41    1377.1903    407820.07    505800.63    471078.53   -41734.473    54602.577    39164.553 
     121   -1036.9181    78.103612   -560.97334   -958.81445    3800.2254    462836.67    1377.1849     411569.7    508073.68    468866.62   -39833.668    51729.314    39218.309 
     122    -1036.629     78.03197   -560.35822   -958.59702    3796.7395    463292.75    1377.2045    412923.14    510115.74    466839.38   -36553.078     47667.05    38708.045 
     123   -1036.7797    78.399625   -560.79495   -958.38004    3814.6282    462517.22    1377.2492    412951.98     510147.4    464452.29   -33810.042    42333.451    37381.483 
     124   -1037.4305    79.263101   -562.35085   -958.16742    3856.6417    460436.61    1377.3188    413265.81    505944.49    462099.52   -30422.567    36718.475    37355.567 
     125   -1038.5382    80.581147    -564.8202   -957.95701    3920.7728    457288.24    1377.4126    412185.63    501507.22    458171.87   -27004.792    31210.113     37972.66 
     126   -1039.9694    82.224684    -568.4994    -957.7447    4000.7411     452723.4    1377.5292    408685.37    495328.18    454156.64   -22124.209    26606.278    39390.769 
     127   -1041.5347    84.004931   -572.49845   -957.52973    4087.3612    447777.38    1377.6669     406323.1    486653.09    450355.95   -16645.302    22457.705    41392.226 
     128   -1043.0427    85.728653   -576.05071   -957.31406     4171.231    443344.93    1377.8238    405130.94    477796.74    447107.12   -11938.936    19518.944      43929.4 
     129   -1044.3553    87.268622   -580.18696   -957.08667      4246.16     438215.3    1377.9981    402757.21    468650.21    443238.48   -6646.5268    18670.122    46955.875 
     130   -1045.4547    88.597366   -584.12214   -956.85736    4310.8116    433313.62    1378.1879    399521.47    460102.59    440316.81     399.1772    18769.733    50982.179 
     131   -1046.3988    89.764707    -586.6085   -956.63409      4367.61    430100.17    1378.3913    397413.79    454178.64    438708.08    6302.0997    20090.104     52818.07 
     132   -1047.1925    90.764465   -589.91674   -956.42808    4416.2545    425948.74    1378.6069    392946.67    448136.36    436763.19    11004.858    21594.756    53264.098 
     133   -1047.7152    91.483563   -592.53754    -956.2316     4451.243    422605.21    1378.8332    388629.14    443818.36    435368.11     15052.89    23786.692    53103.771 
     134   -1047.8382    91.793525   -594.29744   -956.04464    4466.3246    420271.17    1379.0688    384082.99    442962.59    433767.94    16592.344    26713.791     52810.95 
     135   -1047.4857    91.625083   -594.87531   -955.86065    4458.1288    419311.84    1379.3129    380090.46       442259    435586.06     16659.47     30861.75    50932.929 
     136   -1046.7236     91.04709    -594.7148   -955.67652    4430.0059    419207.77     1379.565    375881.69     443216.5    438525.13    16663.872    35106.437    49044.298 
     137    -1045.801    90.299361   -594.46378   -955.50162    4393.6243    419217.09    1379.8253    371787.77    445596.09    440267.42    16652.939    39724.903    47556.616 
     138   -1045.0529    89.710553   -593.64239   -955.34239    4364.9751    419904.31    1380.0935    369495.69    449909.64    440307.61    16035.918    43601.188    46213.063 
     139   -1044.7593    89.552912   -592.63545   -955.20641    4357.3049    420831.08    1380.3702    366524.08    455674.14    440295.03    15016.219    46644.439    43568.498 
     140   -1045.0228    89.922456    -591.0048   -955.10032    4375.2855    422513.27    1380.6555    366028.19    461845.99    439665.63    14538.977    49861.218    40818.206 
     141    -1045.684    90.670674   -590.69205   -955.01331     4411.691    422684.98    1380.9503    364700.78    466318.51    437035.65    14303.895    52876.502    38980.647 
     142   -1046.4237    91.486633   -590.54261    -954.9371    4451.3924     422676.8    1381.2546    364440.41    469933.31     433656.7    12170.864    55683.648    36382.717 
     143   -1046.9588    92.103334   -588.67005   -954.85544    4481.3987    424657.66    1381.5685    367150.78    474214.18    432608.02    10987.023    57843.475    33846.536 
     144    -1047.194    92.414381   -586.33841   -954.77957    4496.5331     427173.4    1381.8926    369843.01    478440.13    433237.06    9262.1557    59751.804    33123.201 
     145   -1047.1881    92.474615   -583.72656   -954.71349    4499.4639    430020.58    1382.2281    372429.95    481726.08    435905.72     7715.659    62286.108    32605.025 
     146    -1047.095    92.429548    -581.3948   -954.66544    4497.2711    432558.78    1382.5761    376359.41    483390.73    437926.19    5679.5251    64111.211    31212.229 
     147   -1047.0741    92.445722   -578.65199   -954.62841    4498.0581    435580.42    1382.9377    381687.89    484346.89    440706.47    4305.7667    64497.272    29018.973 
     148   -1047.2954    92.675949   -577.55428    -954.6194      4509.26    436722.88     1383.314    385344.31    483292.82    441531.49    3769.7658    63988.096    28310.314 
     149   -1047.8244    93.188232     -577.067    -954.6362    4534.1858    437182.94    1383.7056    388947.92    480494.29     442106.6    3295.1122     63022.49    26206.193 
     150   -1048.5847    93.913917    -577.7165   -954.67078    4569.4948    436342.56    1384.1127    391531.43    475618.01    441878.25    2071.7038    61742.917    23852.581 
     151    -1049.452    94.726465   -579.34219   -954.72549    4609.0304    434391.56     1384.535    393861.83     469300.8    440012.06    865.12302    59872.717    21540.405 
     152   -1050.3094    95.517759   -581.80109    -954.7916    4647.5317    431486.54    1384.9717     393793.5    462320.02    438346.11   -487.30923    56358.922    19557.006 
     153   -1051.1094    96.234934   -585.09904   -954.87445    4682.4267    427628.27    1385.4217     394265.8    453641.75    434977.26    438.13224    52272.932    17137.839 
     154   -1051.8576    96.879883   -587.70494    -954.9777    4713.8075    424592.56    1385.8834    396129.84     446427.8    431220.03    1186.1682     46446.06    16684.238 
     155    -1052.553    97.442109   -590.85836   -955.11088    4741.1633    420957.47    1386.3558    396513.92    439281.73    427076.75    2570.7397    39593.077    16092.059 
     156   -1053.1081    97.838521   -593.82706   -955.26955    4760.4512    417564.94    1386.8374    396071.19    432564.87    424058.74    4747.8223    32486.678    17756.633 
     157   -1053.3669    97.914299   -596.03566   -955.45263    4764.1382    415078.43    1387.3268     397343.7    426199.07    421692.52    7078.4566    26124.251    19796.019 
     158   -1053.1391    97.480303   -598.73179   -955.65879    4743.0216    412055.46     1387.823    396221.51    419402.86    420542.01    9216.5274    19325.447     21570.18 
     159    -1052.268    96.391484   -599.96963   -955.87653    4690.0439    410729.27    1388.3249    395691.19    414080.37    422416.24    11683.077    14742.542    24427.639 
     160   -1050.7241    94.622819   -599.99644   -956.10131    4603.9873     410807.7     1388.832    395487.72    410316.73    426618.66    13148.174    10014.755    27069.934 
     161   -1048.6626    92.328993   -599.67862    -956.3336    4492.3785    411290.63    1389.3442    395571.33     407329.4    430971.16    13838.382    7203.1681    30357.673 
     162   -1046.4194    89.849371   -599.06186   -956.57003    4371.7295    412120.99    1389.8617    395072.31    404900.29    436390.36    14595.908    6310.2285    31846.603 
     163    -1044.429    87.610543   -598.55367   -956.81844    4262.7966    412837.73     1390.385    392621.01    404442.43    441449.75    15314.373    7329.4299    33698.387 
     164   -1043.0584    85.969557   -598.88428   -957.08886    4182.9524    412611.29    1390.9143    388929.57    403990.86    444913.43    14598.965    10962.345    34827.311 
     165   -1042.4358    85.058525   -601.41869   -957.37726    4138.6251    409866.42    1391.4496    382704.43    403188.44    443706.37    13550.378    14940.822     33626.41 
     166   -1042.4544     84.77263   -604.88938   -957.68179    4124.7145    406063.14    1391.9897    375915.03    401315.14    440959.26     12529.86     18472.92    32385.319 
     167    -1042.839    84.852022   -608.50011   -957.98695    4128.5774    402101.47    1392.5331    369314.43    400254.83    436735.16    11416.008    22821.188     32001.26 
     168   -1043.3161    85.029097   -612.33267   -958.28705    4137.1932    397881.46    1393.0782    363036.06    397731.03    432877.27     11576.99     26088.29    31934.046 
     169   -1043.7216     85.13903   -616.63961   -958.58258    4142.5422    393114.12    1393.6233     356585.7    395272.76     427483.9    10787.467    28164.265    32058.259 
     170   -1043.9919    85.115836   -620.93483   -958.87607    4141.4136    388362.16    1394.1665    351020.44    392255.11    421810.94    10726.684    28490.755    32321.681 
     171   -1044.1212    84.945748   -625.25788   -959.17547    4133.1378    383589.78    1394.7058    346333.87    388503.77    415931.71      10870.3    27263.229    33799.454 
     172   -1044.0766    84.600793   -628.93267   -959.47584    4116.3536    379568.18    1395.2394    344255.56    384793.65    409655.34    10740.435    25030.062    35809.776 
     173   -1043.8045     84.02787    -631.7051   -959.77662    4088.4773    376587.95    1395.7655    344142.58    380959.15    404662.14     10112.58    22170.317    37239.556 
     174   -1043.2728    83.202955    -635.0382   -960.06981    4048.3401    372960.22     1396.283    344482.59    375855.53    398542.55    9285.7243    18259.003     38961.63 
     175   -1042.5239    82.167527   -638.39405    -960.3564    3997.9601     369304.2    1396.7902    344479.98    370602.98    392829.65    8174.2515    14801.819    40516.221 
     176   -1041.6618    81.028894   -641.32165   -960.63293    3942.5585    366133.42    1397.2858    344462.92    365948.14     387989.2    6492.0316    12530.447    41458.526 
     177   -1040.8349    79.928648   -643.75255    -960.9062    3889.0247    363533.85    1397.7684    344915.58    361402.44    384283.53    4042.5206    11140.955    41775.024 
     178   -1040.1599    78.986063   -645.90747   -961.17382    3843.1621    361249.47    1398.2369    345811.08    355584.12    382353.21    755.31052     9869.656    41992.063 
     179   -1039.7016    78.269579   -648.63047   -961.43207    3808.3007    358309.03    1398.6903    345281.92    349905.89    379739.28   -3725.4119     9440.204    41527.495 
     180   -1039.4858    77.797971   -651.42555   -961.68788    3785.3541    355289.29    1399.1275    344463.78     345215.6    376188.49   -8978.7431    9603.7525    40582.946 
     181   -1039.4809     77.54759   -653.49557   -961.93326    3773.1715    353093.97     1399.547    344071.85    340509.72    374700.34   -15153.447    10115.366    40410.791 
     182    -1039.639    77.469448   -656.19233   -962.16954    3769.3694     350176.9    1399.9481    342438.46    335103.38    372988.86   -21566.023    10843.444    38393.384 
     183   -1039.9049    77.510141    -658.4343   -962.39474    3771.3493    347774.07    1400.3295    341106.84    330567.32    371648.05   -27690.008    11139.824    35928.077 
     184    -1040.225    77.617864   -660.04397   -962.60718    3776.5907    346086.31    1400.6901    338875.63     326849.4    372533.89   -34486.326    12501.167    33609.302 
     185   -1040.5536    77.742323   -661.95678   -962.81124    3782.6464    344048.45    1401.0293    335975.05    323258.35    372911.95   -41183.852    14338.759    31015.794 
     186   -1040.8369    77.827498   -662.45258   -963.00936    3786.7907    343630.32    1401.3461     334907.8    321050.35    374932.82   -47005.488    15693.877    28619.498 
     187   -1041.0012    77.803029   -661.78724   -963.19821    3785.6002    344534.58    1401.6403    333365.97    319891.25    380346.51   -50781.016    16315.088     25968.98 
     188   -1040.9846    77.612471   -661.59861   -963.37212    3776.3283    344882.06    1401.9124    331338.06     318174.1    385134.03   -53154.998    16724.796    21878.288 
     189   -1040.8075    77.281448   -661.42976   -963.52609     3760.222    345189.45    1402.1623    329330.88    315642.69    390594.78   -54964.915    16219.588    18701.422 
     190   -1040.6003    76.930613   -660.34553   -963.66972    3743.1517    346536.15    1402.3902    328220.27    315543.99     395844.2   -55848.725    14661.691    15937.967 
     191   -1040.5162    76.714753   -659.31184   -963.80149    3732.6488    347816.45    1402.5966    327915.51    316550.32    398983.53   -54828.423    13121.827     14175.78 
     192   -1040.6842    76.752257   -657.67506   -963.93193    3734.4736    349788.91    1402.7819    329341.27     319689.6    400335.85   -53386.044    11343.226    14151.679 
     193   -1041.1383     77.08198   -656.48355    -964.0563    3750.5167     351250.5     1402.947    330623.42    322599.16    400528.92   -51635.206    9197.0336     16162.08 
     194   -1041.8386    77.666974   -656.40112   -964.17162    3778.9802    351439.88    1403.0925    331162.25    324846.26    398311.14   -49734.619    7487.7155    18040.688 
     195   -1042.6975    78.413754   -655.59858   -964.28373    3815.3157    352452.71    1403.2183    331999.04    329116.98    396242.11   -48317.751    5866.0605    21275.817 
     196    -1043.603    79.219742   -655.60771    -964.3833    3854.5321    352529.18    1403.3249    332752.73    332833.99    392000.83   -47158.523     4999.272    25587.055 
     197   -1044.4815    80.006813   -655.38324   -964.47466    3892.8279    352867.79    1403.4124    334636.32    336461.97    387505.07   -46387.325    3906.8915    31034.651 
     198   -1045.2805    80.720964   -655.61058   -964.55954    3927.5758    352687.98    1403.4807    335130.85    340353.54    382579.55   -45976.878    3632.9077    36056.913 
     199   -1045.9757    81.341221   -654.86651   -964.63452    3957.7552    353610.61    1403.5298    336293.53    345721.61    378816.69   -45406.726     3178.693    41573.206 
     200   -1046.5723    81.865164   -653.32596   -964.70711    3983.2483    355444.39    1403.5601    336701.55    353327.28    376304.35   -44575.253    4089.4769    45773.811 
     201   -1047.0545     82.27594   -652.24907    -964.7786     4003.235    356752.19    1403.5723    335454.42    360318.11    374484.03    -43113.63    5456.9245    50025.785 
     202   -1047.3933    82.553544    -650.3245   -964.83979    4016.7422    359020.31    1403.5669    334794.26    367649.42    374617.26   -41884.276    7089.6659    53954.195 
     203   -1047.5963    82.695702   -647.61516   -964.90055     4023.659    362188.08    1403.5448    334399.44    374671.53    377493.26   -40813.706    9366.3085     56369.72 
     204   -1047.6673    82.712563   -645.01049   -964.95471    4024.4795    365232.93    1403.5074    332899.47    381003.52    381795.79    -39151.98    11097.765    57549.741 
     205   -1047.6229    82.616986   -641.96649   -965.00593    4019.8291    368779.84    1403.4558    332550.84    386983.38     386805.3   -36801.052     11416.49    57396.779 
     206   -1047.4922    82.438713    -639.3523   -965.05345     4011.155    371835.47    1403.3915       332752    390405.43    392348.99   -34781.954    11502.027     56989.88 
     207   -1047.3299    82.231818   -636.40496   -965.09807    4001.0883    375271.49    1403.3157    333591.04    393098.38    399125.05   -31047.331    11573.862    55295.048 
     208    -1047.213    82.071266   -634.04111   -965.14177    3993.2764    378043.33    1403.2299    334994.78    393555.22    405579.98   -28086.286    9489.5129    52385.094 
     209    -1047.204    82.016316   -631.95272   -965.18764    3990.6027    380505.87    1403.1351    336671.25    392303.91    412542.45   -24453.489     6332.039     49239.95 
     210   -1047.3106    82.079192   -629.00788   -965.23141     3993.662    383946.54    1403.0324    341450.25    390954.73    419434.63    -20695.88    2627.5889    46281.423 
     211   -1047.5168    82.238485   -627.91582   -965.27828    4001.4126    385277.11    1402.9232    344914.23    386888.84    424028.26   -16701.793   -1201.9285    43011.925 
     212   -1047.7689    82.446457    -626.2492   -965.32244    4011.5317    387262.66     1402.808    348480.63    383980.21    429327.14   -12915.544   -3630.1735     39372.37 
     213   -1048.0027    82.638305    -625.4095   -965.36438    4020.8664    388302.94    1402.6876    351341.81    380834.74    432732.26   -8891.6994   -5223.5883    36225.049 
     214   -1048.1886    82.784358   -624.24977   -965.40426    4027.9727    389707.92    1402.5625    354916.02    379036.79    435170.94   -4921.1442   -6725.9126    33259.953 
     215   -1048.3665    82.924689   -624.58364   -965.44178    4034.8007    389405.31    1402.4331    356634.46    377701.43    433880.03   -793.98508   -6328.1032     30090.12 
     216    -1048.614    83.134268      -624.37   -965.47971     4044.998    389729.84    1402.2995     358295.1     378300.2    432594.22    3892.7539   -4084.3025    27724.092 
     217   -1048.9762    83.451759   -624.05943   -965.52447    4060.4459    390174.18    1402.1617    359050.28    380459.95     431012.3    7411.2974   -983.80797    25152.332 
     218    -1049.436    83.861251   -623.84043   -965.57472    4080.3703    390521.34    1402.0198    360174.07    383313.69    428076.26    10973.772    3100.3465    22355.763 
     219   -1049.9238    84.292352   -623.96576   -965.63145     4101.346    390483.52    1401.8741    361060.22    387073.66    423316.68    14116.275    8861.0378    20368.075 
     220   -1050.3169    84.625148   -624.66421   -965.69171    4117.5386    389795.75    1401.7245    361101.99    389346.62    418938.64    16035.928    14431.887    18623.884 
     221    -1050.506    84.757665   -625.09389   -965.74836    4123.9864    389412.09    1401.5707    361157.82    393282.28    413796.17    16685.153    21167.519    17104.183 
     222   -1050.4567    84.649914    -624.8564    -965.8068    4118.7436    389794.34    1401.4126    361607.03    398769.11    409006.88    16772.348    27307.218    15784.025 
     223   -1050.1837    84.319712   -623.60226     -965.864    4102.6773    391338.86    1401.2504    362391.72    406911.87       404713    16008.761    32064.452    15990.078 
     224   -1049.7555     83.83031   -622.72349   -965.92522    4078.8648    392460.07    1401.0845    362074.59    414988.14    400317.49     14996.49    35652.077    17668.474 
     225   -1049.2455    83.253309   -621.88949   -965.99215    4050.7901    393537.77    1400.9156    360818.87    423046.17    396748.25    13355.419    37974.873    19189.695 
     226   -1048.7035    82.642165   -621.99249    -966.0613    4021.0542    393547.26     1400.744    358075.88    429360.94    393204.95    10893.418    38435.928    21741.505 
     227   -1048.1651    82.029279   -622.32013   -966.13587    3991.2335    393306.73    1400.5697    355776.63    434155.19    389988.36    7161.2991    38023.889    24739.962 
     228   -1047.6202    81.408238   -622.32135   -966.21196     3961.016    393442.11    1400.3927    355018.75    437482.43    387825.16    2796.1122    36831.416    28000.344 
     229   -1047.0307    80.744302   -623.70815   -966.28642    3928.7113    391990.98     1400.213    354011.77    437144.01    384817.17   -2138.8532    34450.942    30856.549 
     230   -1046.4081    80.054466   -625.83452   -966.35366    3895.1466    389685.79    1400.0299    353275.85    432260.17    383521.35   -6501.9726     31691.34    32648.567 
     231    -1045.849    79.433992   -626.85467   -966.41497    3864.9566    388640.51    1399.8426    354766.67    426071.13    385083.72   -9107.3781    28533.989    33794.574 
     232   -1045.4663    78.979786    -628.1086   -966.48647    3842.8567    387340.29    1399.6506    357485.09    417497.37    387038.42   -10413.166    25090.242      33517.4 
     233    -1045.255    78.695579   -629.53037   -966.55942    3829.0283    385850.68    1399.4534    359367.63    407929.17    390255.23   -10400.409    22790.756     31475.69 
     234   -1045.1377    78.511193   -631.38628   -966.62655    3820.0568    383858.48    1399.2503    360846.15    397093.76    393635.53   -8831.8308    20832.251    29692.323 
     235   -1045.0486    78.361468    -633.4146   -966.68711    3812.7717    381662.55    1399.0406    362051.99    386192.23    396743.44    -7213.631    19582.449    26394.595 
     236   -1044.9702    78.228405    -635.0054   -966.74177    3806.2974    379962.38    1398.8233    362888.08    376812.12    400186.92   -5891.2665    17176.385    23045.004 
     237   -1044.9289    78.136409   -637.72323   -966.79252    3801.8212    376968.37    1398.5977    360503.47    368679.45    401722.19   -3913.5501    13509.358     19296.93 
     238   -1044.9511     78.10938   -640.48166   -966.84169    3800.5061    373927.57    1398.3627    356998.84    360731.25    404052.64   -2434.2591    9473.8395    17183.306 
     239    -1045.039    78.153831   -642.69203   -966.88514    3802.6688    371510.14    1398.1169     352948.2    354898.55    406683.66    -1636.226    5135.9842    14608.178 
     240   -1045.1854    78.257179   -646.00485   -966.92817    3807.6974    367830.86    1397.8594       347679    349280.66    406532.91   -1639.3442   -742.92801    11895.326 
     241   -1045.3689    78.405758   -648.83033   -966.96317    3814.9267    364703.14    1397.5886    340990.63    345757.01    407361.76   -197.68945   -6783.9287    10633.578 
     242   -1045.5825     78.58344   -650.73232   -966.99904     3823.572    362637.87    1397.3034    335538.69    343944.25    408430.67    411.45846   -12188.157    10213.248 
     243   -1045.7846    78.758045   -651.86519   -967.02652    3832.0676    361448.17    1397.0027    330984.79    343603.22     409756.5    597.80392   -17752.662    9997.6934 
     244   -1045.9332    78.881301   -653.52846   -967.05188    3838.0648    359651.18    1396.6862    326304.09    342968.19    409681.27    178.35994   -22953.903    10494.505 
     245   -1045.9648     78.89124   -654.27917   -967.07352    3838.5484    358900.43    1396.3532    323869.28    342772.06    410059.96   -502.54451   -27471.356    11182.168 
     246   -1045.8203    78.731014   -654.95814   -967.08931    3830.7524    358229.28    1396.0032    322797.19     342671.6    409219.05   -1561.5646   -31129.113    12883.331 
     247   -1045.4599    78.364247   -655.08163   -967.09565    3812.9069    358189.04     1395.636    322986.62    343325.88    408254.63    -3337.549   -34469.359    15997.244 
     248   -1044.8788    77.786789   -653.64256   -967.09206      3784.81    359936.09    1395.2516    325467.99    346141.06    408199.23   -5794.6264   -38306.082    18438.952 
     249   -1044.1074    77.028967   -651.61218    -967.0784    3747.9372    362356.03    1394.8507    327588.35    351622.63     407857.1   -7939.6678   -41790.055    21953.024 
     250   -1043.2149    76.159589   -649.08104   -967.05528    3705.6366    365345.91    1394.4343    331385.97    357364.45    407287.29   -10130.727   -44321.398      24962.7 
     251    -1042.286    75.262934   -645.60836   -967.02306    3662.0088    369413.05    1394.0035    335832.38    365034.47     407372.3   -12683.365   -47023.257    28134.556 
     252   -1041.3917    74.413579   -642.20305   -966.97808    3620.6824    373393.97      1393.56    339157.38     372796.6    408227.94    -14534.66   -49953.726    30898.604 
     253     -1040.59    73.665585   -640.59865   -966.92439    3584.2878    375299.25    1393.1055    339248.23    379060.87    407588.64   -16577.129    -52316.51    34029.923 
     254   -1039.9147    73.060326   -638.45875   -966.85442    3554.8382     377805.9    1392.6406    339469.03     385647.5    408301.16   -18667.876   -53738.401    36699.638 
     255   -1039.4325    72.658922   -636.11863   -966.77362    3535.3074    380534.71    1392.1665    340843.18    391640.57    409120.37   -19495.318   -54147.027    38417.167 
     256   -1039.2151    72.534342   -634.02573   -966.68073    3529.2459    382969.12    1391.6841    342287.91     396946.8    409672.66   -19588.905   -53933.632    38884.208 
     257   -1039.3056    72.727474   -632.52537   -966.57809    3538.6429    384713.58    1391.1945    342118.91    401698.55    410323.29   -18271.547   -52200.974    39035.858 
     258   -1039.6851    73.217188    -631.9027   -966.46787    3562.4705     385441.2    1390.6984    342368.83    403785.16    410169.63   -15829.963   -49275.659     38496.73 
     259   -1040.2702    73.928472   -631.83477   -966.34169    3597.0789    385513.36     1390.196     343959.1    403044.69    409536.29   -14042.557   -45715.485    37770.144 
     260   -1040.9873    74.787728   -631.42234   -966.19959    3638.8871     385966.1    1389.6874    347170.82     402470.2    408257.26   -12228.561   -41204.652    35873.072 
     261   -1041.8094    75.764205   -633.26665   -966.04515    3686.3988    383803.85    1389.1729    347023.82    399752.27    404635.45   -11095.149   -36713.424    33592.995 
     262   -1042.7357    76.859059   -633.48523   -965.87669    3739.6702    383501.41    1388.6514    349504.46    397615.78       403384   -9527.9204    -32930.26    32201.793 
     263   -1043.7838    78.083675    -635.5252   -965.70014    3799.2553     381089.1     1388.123    350284.55    392386.58    400596.18   -8274.4036   -30026.514    29315.719 
     264   -1044.9411    79.423875   -637.60448   -965.51721    3864.4644    378624.36    1387.5865    350733.63    386315.94    398823.53   -7117.7957   -27846.322    25458.039 
     265   -1046.1367    80.809578   -639.08492    -965.3271    3931.8874    376843.58    1387.0412    352449.78     380262.1    397818.88   -5652.7511   -26782.393    21045.919 
     266    -1047.245    82.114023   -639.87915   -965.13093    3995.3568    375849.97    1386.4861    354738.63    374044.75    398766.53   -4258.7272   -27380.798    16137.878 
     267   -1048.1188    83.191899   -640.40285   -964.92687    4047.8021     375161.9     1385.921    357151.93    368204.23    400129.54   -2493.3074   -27601.527    11222.026 
     268   -1048.6438     83.93115   -640.90613   -964.71262    4083.7713     374487.9    1385.3456    360456.54    361612.38    401394.77    51.407695   -27687.221    5785.8412 
     269   -1048.7689    84.280715   -639.52328   -964.48817    4100.7798    375986.65    1384.7595    365006.35    358757.29    404196.33     1104.459   -27796.469    1308.6085 
     270   -1048.5251    84.269245   -636.39061   -964.25582    4100.2217    379505.69    1384.1635    371242.27    358444.07    408830.73    1758.4639   -28078.678   -3059.2894 
     271   -1048.0078    83.989958   -633.22958   -964.01786    4086.6326    383056.48    1383.5589    375913.33    360360.92     412895.2    2665.0528   -28278.547    -6490.504 
     272   -1047.3391     83.56428   -630.93239   -963.77478    4065.9208    385605.66    1382.9472    378007.33    364130.22    414679.44    2301.3491   -28651.903   -9381.6935 
     273   -1046.6405     83.11001   -627.75561   -963.53046    4043.8177    389176.87    1382.3292    380444.05    369948.46     417138.1   -518.65094   -28809.696   -10811.596 
     274   -1045.9973     82.71252   -624.33134   -963.28476    4024.4774       393038    1381.7066    381599.63    377812.31    419702.05   -4988.2651   -28580.637   -10795.008 
     275   -1045.4361    82.402632   -620.69765   -963.03351    4009.3994    397140.03    1381.0808     382000.2    386923.04    422496.84    -10573.84   -28264.836   -8703.8136 
     276   -1044.9792    82.204759    -616.7366   -962.77446    3999.7716    401617.12    1380.4534    382398.38    395642.81    426810.16   -16958.775   -27140.551   -6173.4713 
     277   -1044.6835    82.176009   -613.39238    -962.5075    3998.3728    405372.79    1379.8263    382525.62    402537.22    431055.53   -23432.793   -25583.535   -3428.5876 
     278   -1044.6433     82.41201   -611.30904   -962.23128    4009.8557    407655.89    1379.2009    381600.42    407606.15     433761.1   -29142.829   -24909.825   -912.75132 
     279   -1044.9902    83.037859   -610.00624   -961.95238    4040.3071    409030.02    1378.5781    379907.01    410459.63    436723.42   -33444.092   -23429.805    2134.9229 
     280    -1045.796    84.112106   -608.95144   -961.68389    4092.5759    410128.21    1377.9585    379355.61    412371.75    438657.27   -35463.008   -21811.709    4982.4078 
     281   -1046.9544    85.535555   -609.13646   -961.41888    4161.8355    409788.15    1377.3425    377253.03    412910.77    439200.65   -35503.873   -21015.485     9428.189 
     282   -1048.2184    87.060706   -609.74614   -961.15768    4236.0436    408956.98    1376.7299    375561.26    412677.23    438632.46   -34305.039   -19835.629    14784.548 
     283   -1049.2614    88.362375   -609.64547   -960.89904    4299.3779    408954.15    1376.1205    374872.76    413585.14    438404.56   -33024.904   -18207.539    21421.427 
     284   -1049.7603    89.127925   -608.28806   -960.63237    4336.6266    410404.88    1375.5143    374871.97    416640.61    439702.05   -32238.102   -14600.292    27599.446 
     285   -1049.5195    89.160987   -607.45274   -960.35847    4338.2353    411238.96    1374.9117    374299.11    420901.13    438516.64   -31994.244    -12311.91    34821.732 
     286   -1048.5205    88.441506   -606.01625   -960.07897    4303.2281    412766.86    1374.3133       375126    425345.05    437829.53   -32823.168   -10003.609    41935.074 
     287   -1046.9282    87.134129   -602.76808   -959.79406    4239.6161    416401.36    1373.7194    377302.64    431520.19    440381.24   -33533.352   -7597.3016     50440.56 
     288   -1045.0396    85.519139   -599.75974   -959.52051    4161.0368    419770.56    1373.1317    379207.12    437983.11    442121.45   -34341.445   -4990.6458    57978.072 
     289    -1043.118    83.864471   -596.32661   -959.25356    4080.5269    423643.92    1372.5513    383795.11    443032.56     444104.1   -35962.694   -3643.8097    65056.381 
     290   -1041.3529    82.357087   -593.01536   -958.99582    4007.1833    427386.24    1371.9798    389891.35    445850.91    446416.45   -36289.604   -2005.3427    70490.346 
     291   -1039.8229    81.085009   -589.30691   -958.73784    3945.2889    431592.15    1371.4187    396667.22    448009.75    450099.48   -35080.942   -33.397896     74146.23 
     292    -1038.565    80.086796   -585.52108   -958.47825    3896.7196    435886.23    1370.8697    404081.77    449272.91    454304.02     -34282.8    1624.7418    76556.027 
     293   -1037.6305    79.412758   -582.58518   -958.21775    3863.9235    439184.58    1370.3343    408712.64    450033.11       458808   -32960.309    3211.7974    77203.387 
     294   -1037.0555    79.101528    -579.3007   -957.95401    3848.7802    442884.59    1369.8138    414114.68    450663.54    463875.56   -31626.073    4616.7735    77081.979 
     295   -1036.8552    79.165196   -576.16164      -957.69     3851.878    446411.59    1369.3098     418115.7    452368.08    468750.98   -30557.428    6117.3472    76266.317 
     296   -1037.0158    79.592601    -573.6648   -957.42323     3872.674    449180.41    1368.8236    421092.89    454651.04    471797.31    -30005.73    7626.4693    72879.982 
     297    -1037.509    80.355961   -572.69176   -957.15306    3909.8161     450156.8    1368.3562    420909.39    455919.45    473641.56   -29710.817    9646.5577    68039.376 
     298   -1038.2937    81.412548   -571.65193   -956.88115    3961.2257    451203.69    1367.9081    420770.31    458264.13    474576.63   -28485.139    11283.463     63802.15 
     299   -1039.2938    82.683898   -570.89218   -956.60986    4023.0847    451917.35    1367.4797    421757.51    460778.57    473215.98   -27102.034    12906.105    59816.595 
     300   -1040.3738    84.030227    -570.4721   -956.34359     4088.592    452232.66    1367.0712    422367.94    464052.72    470277.33   -25498.221    12462.197    54907.916 
     301   -1041.3062    85.224698   -569.68817   -956.08146    4146.7104    452972.91    1366.6827    421980.45    467785.41    469152.89   -23388.994    10813.376     50535.79 
     302   -1041.8212    86.006781   -568.24304   -955.81443    4184.7636    454476.42    1366.3146    421716.36    470815.08     470897.8   -19892.486    8213.6328    46626.356 
     303   -1041.7418    86.193945   -566.18049   -955.54785    4193.8703    456698.46    1365.9675    420826.67    474809.24    474459.47   -15869.159    4740.1913     43366.65 
     304   -1041.0007    85.723213   -563.71547   -955.27753    4170.9662    459382.08    1365.6421    419444.59    478537.75    480163.89   -11760.514    337.64462    40408.197 
     305   -1039.6691    84.658337   -560.68327   -955.01071    4119.1534    462728.93    1365.3397    420750.94    481053.74    486382.12   -7720.4755   -4207.0007    36579.151 
     306   -1037.9421    83.203841   -557.58586   -954.73825    4048.3832    466138.91    1365.0614    421145.68    485027.16    492243.89     -2899.22   -7586.2328    31784.427 
     307   -1036.1344     81.65214   -555.07445   -954.48227    3972.8833    468872.93    1364.8086    422496.28    487141.61     496980.9    752.59015   -10524.837    27162.779 
     308   -1034.5211     80.29193   -553.72309   -954.22919    3906.7007    470240.17    1364.5824    424532.14       487237    498951.37    4240.1106   -11201.668    23935.945 
     309   -1033.3508    79.359167   -552.70979   -953.99163    3861.3159    471219.73    1364.3834    426861.52     486190.2    500607.45    7940.8462   -10526.557     20185.14 
     310   -1032.7375    78.978015   -552.90305   -953.75948    3842.7705    470779.35    1364.2118    429510.38    483773.58     499054.1    10452.288   -9216.5415    16251.329 
     311    -1032.704    79.170203   -554.42784   -953.53384    3852.1217    468773.13    1364.0676    432119.52    479748.48    494451.39    11037.764   -5259.3067    13524.638 
     312   -1033.2014    79.892023   -557.41395    -953.3094    3887.2427    465042.23    1363.9501    434048.89    473635.97    487441.82    11646.668   -644.66978    12128.761 
     313   -1034.1349    81.052425   -561.50339   -953.08243    3943.7035    460003.05    1363.8578    434245.89    467711.08    478052.18    10067.241    4070.3863    10799.573 
     314   -1035.3768    82.520048   -566.35903   -952.85674    4015.1124    454056.79    1363.7887    432744.73    461658.64       467767    8673.0033    9039.5301    10618.785 
     315   -1036.7657    84.137147   -570.47127   -952.62859    4093.7943    448973.53    1363.7407    431943.72    456486.48    458490.38    6105.5917    14996.867    10170.119 
     316   -1038.1508    85.752963   -574.22453   -952.39783    4172.4138    444302.38    1363.7118    431290.18    451238.51    450378.44    2202.7008    20893.491     9443.962 
     317   -1039.4086    87.245809   -577.43692   -952.16282      4245.05    440255.91    1363.7001     430635.9    446890.84    443240.98   -2681.1431    27494.588     8066.686 
     318   -1040.4767    88.548002   -580.34046   -951.92872    4308.4098    436568.27    1363.7042    430466.32    442796.69    436441.79   -8179.4504    32347.438    7390.7357 
     319   -1041.3405    89.642833   -581.37406   -951.69762    4361.6801    435076.52    1363.7226    432426.86     440397.1    432405.59   -12979.486    36255.831    6694.2443 
     320   -1042.0267    90.555874   -582.58099   -951.47086    4406.1052     433381.9    1363.7549    434186.79    437183.13     428775.8    -18523.25    38758.317    5698.0371 
     321   -1042.6124    91.363207    -582.7804   -951.24923     4445.387    432872.84    1363.8003    435645.14    434204.98     428768.4   -23355.087    41519.581    4459.8372 
     322   -1043.2157    92.171174    -581.4786   -951.04451    4484.6996    434143.09    1363.8587    440092.25    431348.26    430988.75   -27539.815    42740.066    3276.0895 
     323   -1043.9013    93.050851   -579.90201   -950.85041    4527.5013     435744.2    1363.9305    445145.86    428108.55    433978.18   -29412.879    41190.018    2557.2044 
     324   -1044.6887    94.006327   -578.82994   -950.68236    4573.9912    436778.56    1364.0166    449318.83    423531.57    437485.29   -28518.229    37759.125    2558.2566 
     325   -1045.4765    94.944434   -578.91104   -950.53209    4619.6359    436474.61    1364.1172    452452.33    417353.62    439617.86   -25953.439    34532.655    3896.6115 
     326   -1046.0797     95.67852   -577.82683   -950.40118    4655.3537    437557.34    1364.2323    454332.48    413765.13    444574.41   -22108.925    30123.352    6068.2268 
     327   -1046.2862    96.001427   -575.70649   -950.28476    4671.0652    439868.84    1364.3624    457069.82    411605.51    450931.19    -16039.77    26335.567    7402.7182 
     328   -1045.9575    95.774325   -572.64621   -950.18318    4660.0152    443295.83    1364.5083    460447.92    412272.08     457167.5   -10138.182    22405.159    8730.0936 
     329   -1045.0878    94.992501   -569.38294   -950.09526    4621.9746    446970.82    1364.6715     463997.2    414685.16    462230.09   -3894.9058    18722.862    11021.691 
     330   -1043.7823    93.758694   -565.18932   -950.02361    4561.9423    451749.97    1364.8533    467369.65    418594.85    469285.41    4374.0307    15689.857     12675.23 
     331   -1042.2467    92.275637   -560.77713   -949.97108    4489.7824    456799.93    1365.0558    470823.53    424578.15    474998.12    10920.733    14121.931    15909.272 
     332   -1040.7522    90.813232    -556.4418   -949.93892    4418.6273    461774.47    1365.2808     473336.3     430759.4    481227.73    15785.855    13203.243    17894.591 
     333   -1039.5527    89.620836   -552.82758   -949.93186    4360.6098    465922.33    1365.5305    475145.81    436572.55    486048.63    19923.739    12042.982    19924.721 
     334   -1038.7915    88.839266   -550.75352   -949.95221    4322.5816    468285.09    1365.8064    476108.39    441733.69     487013.2    22905.773       9348.8    21339.473 
     335   -1038.4654    88.471368   -549.51126   -949.99408    4304.6811    469687.21    1366.1095    477291.61    445770.53    485999.49    24966.437    8806.4966    20770.268 
     336   -1038.4464      88.3861   -549.42637   -950.06029    4300.5322    469750.62    1366.4405    478681.35    447509.86    483060.67    25398.671    7719.6819     18783.57 
     337   -1038.5111    88.376115   -549.22053   -950.13497    4300.0464    469956.09    1366.7994    480827.72    449496.85    479543.69    25982.676    6743.1136    16840.178 
     338   -1038.5088    88.290086   -548.97969   -950.21869    4295.8606    470203.39    1367.1864    483136.59    450856.61    476616.97    24426.558    6738.9925    14387.784 
     339   -1038.3685     88.05912    -549.7219   -950.30934    4284.6227    469297.29    1367.6017    483995.88    449773.67    474122.32    23613.211    8276.5289    10745.152 
     340   -1038.0949    87.682394   -551.39396   -950.41251    4266.2926    467307.82     1368.045    486208.54    447269.49    468445.41     23178.02    8438.3725    6581.7995 
     341   -1037.7474    87.221349   -553.79106   -950.52603    4243.8599    464473.62    1368.5157    487359.98    444472.65    461588.23    22968.882    9063.0443    1219.4896 
     342    -1037.414    86.762502   -556.48975   -950.65147    4221.5341     461293.5    1369.0126    486455.06    442662.83    454762.61    22663.551    9144.7423   -3724.6796 
     343   -1037.1866    86.404844   -561.33648   -950.78179    4204.1318    455600.07    1369.5347    481030.16    440586.78    445183.27    20717.761    8268.0162   -7004.5321 
     344   -1037.2111    86.290339   -566.92896   -950.92076    4198.5605    449041.46    1370.0798    471488.38    439897.58    435738.42    19532.224    6842.0802   -7952.5212 
     345   -1037.6078    86.532795   -573.71966   -951.07497    4210.3575    441098.63    1370.6454     459984.4    438316.18    424995.32    18135.538    4559.8671   -7635.9178 
     346   -1038.3935    87.151666    -581.1984   -951.24188    4240.4694    432367.76    1371.2284    447627.83    434995.34     414480.1    18050.855    2730.0866   -8129.7093 
     347   -1039.4678    88.041629   -589.27983    -951.4262    4283.7716    422956.42    1371.8255    433946.11    431042.78    403880.36    17825.951    3029.1287   -7934.8248 
     348   -1040.6042    88.991066   -597.58172   -951.61311    4329.9676    413295.75    1372.4331    418998.59    425919.03    394969.65    17262.298    4349.1102   -7184.1964 
     349   -1041.5651    89.755432   -606.40193   -951.80967    4367.1587    403048.12    1373.0474    403213.51    418155.19    387775.67    19174.884    6735.6526   -7080.5637 
     350   -1042.1012    90.094104   -613.68283   -952.00711    4383.6372    394605.31    1373.6643    390202.73    410491.44    383121.75    21845.599    10776.862   -7322.9065 
     351   -1042.0616    89.861751   -617.95305   -952.19981    4372.3318    389674.64    1374.2806    381874.14    404580.84    382568.94    24268.437    15526.545   -8310.9337 
     352   -1041.4625    89.073163   -621.00623   -952.38935    4333.9621    386163.68    1374.8943    376423.06    398161.35    383906.63    26607.435    21021.178    -9495.299 
     353   -1040.4673    87.885113   -623.27449   -952.58217    4276.1561    383575.03    1375.5041    372567.84     391390.2    386767.05    27981.282    26271.572   -10173.884 
     354   -1039.3147    86.537276   -623.65006   -952.77746    4210.5755    383196.57    1376.1088    372525.22    386287.06    390777.42    29426.964    31470.451   -10687.037 
     355   -1038.2707    85.290308   -624.59803   -952.98035    4149.9028    382162.58    1376.7084    373629.18    380700.24    392158.33    31033.501    36013.566    -11509.43 
     356   -1037.5326    84.339064   -624.69783   -953.19352    4103.6188    382129.66    1377.3023    376735.93    376289.93    393363.11    30959.225    40102.864    -11406.94 
     357   -1037.1731    83.761813   -623.29503   -953.41126     4075.532    383850.83    1377.8906    381508.83    375653.58    394390.09    30982.773    42249.247   -11846.766 
     358    -1037.162     83.51598   -622.62364   -953.64598    4063.5707    384741.56    1378.4739    386053.31    374448.48     393722.9    31400.389    43739.282   -12033.803 
     359   -1037.3153    83.432037   -622.32636   -953.88324    4059.4863    385201.16    1379.0526    391234.72    372394.11    391974.65    31810.429    44670.986   -12341.307 
     360   -1037.4129    83.295372   -620.85851   -954.11755    4052.8368    387017.58    1379.6267    397587.46    372656.48     390808.8     33044.68    44640.963   -12421.128 
     361   -1037.3011    82.960306   -619.15097   -954.34081    4036.5337    389098.97    1380.1971    405038.12    373684.38    388574.41     34914.44    44360.541   -12380.834 
     362   -1036.9832    82.427784   -617.69092   -954.55541    4010.6232    390882.27    1380.7645    413108.34    373937.97     385600.5    36387.505    41603.548   -11954.659 
     363   -1036.6157    81.848335   -615.64521   -954.76733    3982.4294    393340.93    1381.3297    421100.58    375823.92    383098.28    38324.504    38443.622   -10878.226 
     364   -1036.4115    81.425525   -613.10894   -954.98597    3961.8571     396374.5    1381.8935    428993.67    378357.91    381771.94    39213.771    34457.189   -9845.8415 
     365   -1036.4941    81.274697   -611.42007   -955.21944    3954.5184    398440.73    1382.4572    435048.14     380269.1    380004.96    40117.179     29836.91   -9194.3884 
     366    -1036.803    81.344359   -609.78923   -955.45868    3957.9078    400444.54    1383.0217     440235.4    382759.75    378338.47    40286.565    24543.174   -7764.8818 
     367   -1037.1695    81.470581   -609.10053   -955.69888    3964.0493    401356.38    1383.5876    443346.69    384298.04    376424.39    40022.744    18404.368   -5768.3597 
     368   -1037.4143     81.47817   -606.90561   -955.93611    3964.4186    404006.96    1384.1555     446021.4     387953.9    378045.59    39512.866    11995.021   -4067.6506 
     369   -1037.4527     81.28922   -604.08667    -956.1635     3955.225    407365.14    1384.7263    449686.74    392839.71    379568.98    37736.477    6252.4325   -3491.1199 
     370   -1037.3617    80.980983   -602.53468   -956.38069    3940.2273    409242.17    1385.3014    450835.49    397024.72    379866.29    35195.372     312.9186   -3856.0712 
     371   -1037.3678    80.771796   -600.69765   -956.59604    3930.0491    411443.54    1385.8816    451830.57    401728.43    380771.62     32004.82   -4558.0442    -3963.555 
     372   -1037.7491    80.931984   -599.74999    -956.8171    3937.8432    412620.13    1386.4678    451532.77     405426.9    380900.71    28864.287   -9316.3479   -2794.1454 
     373   -1038.7215    81.666928   -600.17656    -957.0546    3973.6028    412225.44    1387.0604    449789.12    406546.63    380340.58    25403.091   -14381.266   -2678.5555 
     374   -1040.3243    83.022031   -601.50552    -957.3023     4039.537    410799.11    1387.6594    447783.09    405911.02    378703.21    22139.549   -19064.373   -2542.6072 
     375   -1042.4225    84.857901    -604.0727   -957.56465    4128.8635    407960.18    1388.2641    444639.12    402296.47    376944.96    17763.499   -23231.365   -1702.1773 
     376   -1044.7507    86.914309   -607.20773   -957.83635    4228.9205    404478.11    1388.8735    439720.82    398940.47    374773.05    12419.039   -26260.446   -653.69891 
     377        -1047    88.881981   -611.57994   -958.11805    4324.6599    399583.11    1389.4862    433854.92    393307.84    371586.58    8272.3252   -27431.808    742.27384 
     378   -1048.8791    90.475755    -615.8653   -958.40335    4402.2069    394796.29    1390.1002    427203.27     388480.2    368705.41    4719.1488   -28250.167    3740.1712 
     379   -1050.1769    91.479978   -619.56137   -958.69694    4451.0686    390702.33    1390.7136     420665.5    382963.41    368478.08    973.34809   -27443.093    6559.6968 
     380   -1050.7758    91.780529   -623.63552   -958.99524    4465.6923    386182.64    1391.3247    412184.44    378252.49    368111.01   -2603.0221   -25014.074    9842.2334 
     381   -1050.6791    91.372676   -626.77196   -959.30639    4445.8477    382762.19    1391.9317    405168.89     373944.2    369173.47   -6050.8233   -21184.165    12442.671 
     382    -1049.947    90.324181   -629.60244   -959.62277    4394.8319    379704.25    1392.5333     399093.2    368773.62    371245.94    -8788.062   -16591.767    13709.048 
     383   -1048.7132    88.764719     -633.095   -959.94846    4318.9544    375900.05    1393.1281    393106.91    363446.01    371147.23   -10465.909   -10597.981    12621.863 
     384    -1047.122    86.841673   -635.03774   -960.28033    4225.3863    373890.06    1393.7146    389262.28    360023.41    372384.49   -11838.503   -3889.4565    10788.469 
     385    -1045.311    84.691101   -636.66003   -960.61988    4120.7476    372261.25    1394.2919    386407.59    357336.63    373039.53   -13621.062    3010.2552    7537.4219 
     386   -1043.4055    82.451889    -638.2375   -960.95361     4011.796     370681.2    1394.8594    384611.09    354947.51    372485.01   -15439.287    8980.9581    3387.3391 
     387   -1041.5531    80.269131   -638.65697   -961.28396    3905.5913    370430.92    1395.4164    383981.42    354071.92    373239.41   -16902.795    14340.209   -953.76023 
     388   -1039.9177    78.311461   -639.12938   -961.60629    3810.3386    370113.71    1395.9626    382449.08    353660.07    374231.99   -17834.015    18250.227   -5806.7229 
     389   -1038.6718    76.747843   -640.06058   -961.92396    3734.2588    369267.93    1396.4981    380686.55       353459    373658.24   -18739.298    20265.579   -10693.185 
     390   -1037.9475    75.711716    -640.7862   -962.23576    3683.8448    368654.77    1397.0223    379036.31    353131.32    373796.69   -18999.902    21226.288   -15033.526 
     391   -1037.8308    75.286658    -642.4093   -962.54414    3663.1631    367012.29     1397.535    377052.92    353018.62    370965.32   -18114.397    20535.474    -18924.22 
     392   -1038.3235    75.472069   -644.92898   -962.85144    3672.1845    364345.48    1398.0355    374562.42     351032.1    367441.92   -16527.472    17867.034   -21403.338 
     393   -1039.3278    76.172405   -647.14168   -963.15538    3706.2602    362031.85    1398.5226    371747.58     349208.8    365139.17   -15112.843    14663.605   -22059.084 
     394   -1040.6766    77.219715   -648.98546    -963.4569    3757.2183    360143.24    1398.9954    371096.06     348134.4    361199.27   -14284.938    10524.101   -22778.007 
     395   -1042.1753    78.423603   -649.97396   -963.75172    3815.7949    359231.28    1399.4531    372274.74    348134.89    357284.22   -12414.488    5712.2296   -22595.219 
     396   -1043.6562     79.61302   -651.03413   -964.04322    3873.6674     358238.1    1399.8953    372436.19    348616.72    353661.38   -10593.216    1259.0682   -21395.148 
     397   -1044.9786    80.650157   -652.85495   -964.32841    3924.1306    356372.07    1400.3214    371436.47    348068.34    349611.41   -8049.7069   -3974.8587   -19447.424 
     398   -1046.0663    81.457154   -654.63346   -964.60913     3963.396    354554.74    1400.7307    370471.08    347939.55     345253.6   -5165.5183   -7682.4822   -17306.898 
     399   -1046.8991     82.01071   -655.14254   -964.88843    3990.3299    354192.87    1401.1225    370313.14    351372.57    340892.89    -2500.901    -11467.75   -14961.564 
     400   -1047.4883    82.322716   -655.68457    -965.1656     4005.511    353795.57    1401.4964       370125    353942.92    337318.79   -2206.6883   -15070.203   -12917.346 
     401    -1047.892    82.456051    -656.8455   -965.43598    4011.9986    352687.92    1401.8524    368938.68     354728.5    334396.58   -2225.7362   -18481.007   -10438.274 
     402   -1048.2179    82.509632   -657.76739    -965.7083    4014.6056    351860.83    1402.1899    368470.34    355389.38    331722.77   -1531.5241   -21794.228   -8029.3702 
     403   -1048.5602    82.576698    -659.4908   -965.98349    4017.8688    350126.52    1402.5084    366862.62    354193.31    329323.64   -964.66896   -24935.714   -4331.7288 
     404   -1048.9752    82.709988   -661.55076    -966.2652    4024.3542    348020.93    1402.8073    366699.99    350562.11     326800.7   -1371.3084   -28806.064   -445.69333 
     405   -1049.4168     82.86636   -663.49461   -966.55043    4031.9626    346057.92    1403.0857     366367.1    347004.12    324802.54   -2464.9095   -32735.678    3999.0222 
     406   -1049.7592    82.919992   -664.82397   -966.83916    4034.5722    344806.49    1403.3426    366474.09    343370.32    324575.05   -4149.8377   -36379.405    7204.2689 
     407   -1049.8681    82.748757   -665.52722   -967.11931    4026.2405     344265.8    1403.5776    366077.37    341013.94    325706.09   -6096.4615   -40838.049    10386.579 
     408   -1049.6812    82.284063   -665.35772   -967.39713    4003.6303    344724.18    1403.7903    366308.23    339557.58    328306.74   -7139.6737    -44317.61    14495.027 
     409   -1049.1982    81.532164   -663.08707   -967.66608    3967.0457     347575.5    1403.9808    368704.93    340743.48    333278.07   -7754.8167   -46496.771    18065.479 
     410   -1048.4881    80.562761   -660.99084   -967.92533    3919.8782     350221.2    1404.1504    370622.94    341884.53    338156.12   -7834.4624   -49947.778     22025.42 
     411   -1047.6734    79.493164   -659.12255   -968.18025    3867.8357    352606.26       1404.3    371415.34    344411.25     341992.2   -7409.3755   -53982.719    25474.206 
     412   -1046.8676    78.440091    -656.0385   -968.42752    3816.5972    356373.86    1404.4306    374398.47    349165.01     345558.1   -6108.4982   -56643.358    28941.043 
     413   -1046.1541    77.481599   -652.44984   -968.67252    3769.9606    360718.28    1404.5436    378079.41    353956.59    350118.84   -4925.9759   -57794.584    32737.667 
     414     -1045.57    76.657552   -648.16275    -968.9124    3729.8656    365856.92    1404.6408    382805.29    359155.91    355609.56   -3637.1422   -58063.449    35420.364 
     415   -1045.1128    75.969113   -644.60667   -969.14368    3696.3688    370154.88    1404.7244    386950.34    362770.62    360743.66   -1993.1051   -57535.411    36263.889 
     416   -1044.7638     75.40052   -641.63594   -969.36331    3668.7032    373774.63     1404.796    389912.71    366206.77    365204.42   -905.62953   -56522.899    35782.083 
     417   -1044.5243    74.949659   -639.64204   -969.57461     3646.766    376273.32     1404.857    390481.03     369353.3    368985.62    36.453076   -53702.225    33902.425 
     418   -1044.4177    74.647641    -636.7946   -969.77001     3632.071    379729.59    1404.9086    391680.72    373618.07    373889.98    436.28302    -49546.07    31272.727 
     419   -1044.5107    74.548443   -634.45207   -969.96229    3627.2443    382608.48    1404.9521    391377.83    378140.79    378306.82   -314.62254   -45933.824    28064.772 
     420   -1044.8295    74.680691   -632.30189    -970.1488    3633.6791    385263.16    1404.9887     389953.2    382112.09     383724.2   -2086.9838   -41957.404    25418.953 
     421    -1045.323    74.985925    -630.3666   -970.33706    3648.5306    387676.27    1405.0194     387221.8    386348.28    389458.74   -2911.1979   -36575.834    22843.826 
     422   -1045.8363    75.318953   -629.76598   -970.51739    3664.7345    388559.65    1405.0453    383918.28     388483.8    393276.87   -3473.2712   -29897.864    20111.233 
     423   -1046.2194    75.535301   -628.71884   -970.68407    3675.2611    389937.85    1405.0666     383152.7    389614.41    397046.44   -3981.5177   -22369.995    18481.076 
     424   -1046.4285    75.596083   -627.80013   -970.83239    3678.2186    391149.73     1405.084    382666.31    389667.68    401115.21   -5267.6575   -13562.349    17670.734 
     425   -1046.5806    75.620155    -625.8404   -970.96045    3679.3898    393526.46     1405.098    385043.38     391449.8    404086.19    -6322.123   -4889.0423    16722.701 
     426   -1046.9339    75.846215   -625.09229   -971.08765     3690.389    394521.33    1405.1094    387218.15    391124.72    405221.11   -7120.9841     3648.105    15691.421 
     427   -1047.7189    76.505063    -624.4101   -971.21381    3722.4461    395440.42    1405.1188    390653.72    391161.15    404506.38   -8095.3593    11147.023    14070.643 
     428   -1049.0374    77.685503   -625.75178   -971.35194    3779.8818    394065.92    1405.1265    392594.82    389480.49    400122.46   -8853.7838    15839.459    13508.673 
[...]
    9897    -1044.113    77.609623   -588.17098   -966.50342    3776.1898    440620.66    1375.6852    409411.26    435144.92    477305.81    5751.3664   -59177.675    31725.226 
    9898   -1044.7083    78.187368   -590.26005    -966.5209    3804.3006    438218.97    1375.6508    406674.22    432748.96    475233.73     5431.176   -58900.821    28623.138 
    9899   -1045.4642    78.925387   -592.40908   -966.53879    3840.2098    435742.97    1375.6317    404671.79    429070.34    473486.78    4230.4056   -57577.186    27632.361 
    9900   -1046.2348     79.68331   -594.78611   -966.55149    3877.0875    432990.83    1375.6267    403784.45    423600.73    471587.31     1044.719    -54875.97    26675.695 
    9901   -1046.9144     80.35232   -596.78063   -966.56206     3909.639    430677.57    1375.6349    403792.09    418631.84    469608.79   -3845.5562   -51276.006    26982.666 
    9902   -1047.4187    80.846273   -599.95785   -966.57245    3933.6729    426982.88    1375.6554    402353.06    412382.37     466213.2   -8986.4167   -47632.846    27634.709 
    9903   -1047.6768    81.099417   -602.46503   -966.57737    3945.9899    424058.95    1375.6867    400845.23    406458.72    464872.89   -15165.509   -42787.267    28941.069 
    9904   -1047.6736    81.093024   -604.85525   -966.58059    3945.6788     421266.4    1375.7276    399719.23       399914    464165.96   -20908.002   -36561.246    30555.975 
    9905   -1047.4496    80.870117    -607.0723   -966.57953     3934.833     418668.1    1375.7772    399424.99    392734.39    463844.93   -26178.609   -30295.238    31963.963 
    9906   -1047.1092    80.538476   -609.28874   -966.57077    3918.6966    416059.46    1375.8343    397863.45    386861.17    463453.75   -30634.501   -23937.263    33446.459 
    9907   -1046.8036    80.236379   -610.56386   -966.56727    3903.9977    414551.29     1375.898    396749.74    383119.47    463784.65   -34697.214   -18664.063    34830.682 
    9908   -1046.6249    80.058609   -611.54057   -966.56634    3895.3481    413391.94    1375.9677    395653.92    381408.81    463113.11   -37903.945   -13684.987    35860.788 
    9909   -1046.5893    80.022024   -612.30396   -966.56732     3893.568    412481.66    1376.0428    394005.68    380801.81    462637.49   -39141.267   -9294.1865    37700.486 
    9910   -1046.6573    80.092853    -612.5216   -966.56444    3897.0143    412200.83    1376.1232    392929.27    381001.23       462672    -40048.38   -6563.4283    39390.801 
    9911   -1046.7874    80.228608   -612.73386   -966.55883    3903.6196     411921.6    1376.2086    392422.42    383252.02    460090.37   -40533.192   -3739.3073    41353.531 
    9912   -1046.9387    80.389194    -612.2906   -966.54949    3911.4332    412399.69     1376.299    391250.99       388341    457607.07   -40617.857   -1794.9285    43595.589 
    9913   -1047.0735    80.535187   -612.29034   -966.53832    3918.5366    412358.36    1376.3945    388832.59    393995.05    454247.43   -39876.244   -618.03974    45914.173 
    9914   -1047.1569    80.630451   -611.11222   -966.52647    3923.1718    413685.68    1376.4952    387735.03    401143.34    452178.67   -37534.586   -215.85187    48148.111 
    9915    -1047.142    80.630014   -609.37317   -966.51203    3923.1505    415660.94    1376.6015    386484.81    409837.69    450660.33   -33452.894    223.16206    50579.789 
    9916   -1046.9989    80.506828   -608.09541   -966.49204    3917.1568    417090.62    1376.7144       384474    418994.06    447803.82   -29906.121    671.62529    52959.272 
    9917   -1046.7406    80.267461    -607.3598   -966.47315    3905.5101    417888.34    1376.8342    382683.24    426601.93    444379.85   -25357.817    546.06395    54838.723 
    9918   -1046.4035    79.960783   -606.78449   -966.44268    3890.5883    418483.68    1376.9615     379603.4    434664.77    441182.86   -21305.421    536.69339    57261.394 
    9919   -1046.1011     79.68873   -606.11435   -966.41238    3877.3512    419187.11    1377.0963    376654.48    442517.94     438388.9   -17820.053    215.61575    58247.119 
    9920    -1045.945    79.563445   -604.98647   -966.38153    3871.2553    420419.86    1377.2391    373864.88    449843.35    437551.35   -15735.644     702.2483    58326.908 
    9921   -1046.0103    79.654787   -603.84477   -966.35555    3875.6997    421671.53    1377.3903    371438.55    456878.94    436697.09   -14167.811    1347.5605    58603.214 
    9922   -1046.2845    79.953312   -604.43095   -966.33121    3890.2248    420912.46    1377.5503    367802.85    459451.92     435482.6   -13310.627    2449.7834     57493.77 
    9923   -1046.6779     80.37228   -605.14224   -966.30563    3910.6102    420003.99     1377.719    364415.07    460880.01    434716.89   -14247.311    3775.1089    56324.742 
    9924   -1047.0785    80.804415   -606.39622   -966.27405    3931.6362    418455.24     1377.896    361152.85       459304    434908.87   -15640.399    6407.3016    54451.052 
    9925    -1047.405    81.170055   -608.48669   -966.23492    3949.4269    415923.25    1378.0807    357360.92    455460.36    434948.47   -17794.597    9357.8464     52954.88 
    9926   -1047.6556    81.466994   -609.87272   -966.18859    3963.8748    414200.45    1378.2721    354886.49    452272.02    435442.84   -20590.898    12236.026    51638.904 
    9927   -1047.9082    81.770944    -610.2504   -966.13721    3978.6638    413642.44    1378.4695    354587.77    450473.11    435866.45   -23631.668    14986.666    50150.783 
    9928   -1048.2571    82.166639   -612.10509   -966.09047    3997.9169    411371.79    1378.6727    354649.15    445094.93    434371.31   -25864.533    17219.453    48375.983 
    9929   -1048.7421    82.702769   -613.47855   -966.03937    4024.0029    409654.45    1378.8808    356216.37    439669.05    433077.94   -27111.484    18949.149    47060.203 
    9930   -1049.3462    83.342683   -614.52951   -966.00348    4055.1387     408328.7    1379.0932    358555.51    433150.53    433280.05    -27708.03    20622.197    45631.778 
    9931   -1049.9054    83.939241   -616.04231    -965.9662     4084.165    406464.17    1379.3094    360099.48    426871.89    432421.14   -27316.059    21384.103     42645.61 
    9932   -1050.2276    84.303951   -617.04152   -965.92364    4101.9104    405189.69    1379.5285    362263.99    420751.84    432553.24   -25427.604    21956.804    40101.925 
    9933   -1050.1804    84.307914   -617.50476   -965.87247    4102.1032    404527.26    1379.7502    363869.77    417370.68    432341.33   -22808.401    22806.755    37001.433 
    9934    -1049.766    83.949967    -617.2733   -965.81607    4084.6869    404664.86    1379.9741    365695.05    415336.92    432962.62   -18935.927    23017.761    34653.328 
    9935   -1049.1112    83.358352   -616.75224   -965.75286    4055.9011    405130.03    1380.2003    365235.41    415944.99     434209.7    -14663.89    23533.948    32075.372 
    9936   -1048.4425    82.755438   -616.61631   -965.68707    4026.5656    405144.31     1380.429    363276.43     417721.3     434435.2   -11231.787    24365.131    30141.686 
    9937   -1048.0193    82.396647   -616.20557   -965.62264    4009.1082    405478.33    1380.6603    361115.52    419833.66    435485.81   -8651.8102     25251.51    28859.001 
    9938    -1048.037    82.465469   -616.85777   -965.57152    4012.4568    404593.63    1380.8941     357045.8    420141.58    436593.51   -5809.1372    25697.493    28223.808 
    9939   -1048.5017     82.97133   -617.96788   -965.53035    4037.0701     403188.9    1381.1303     353164.4    418462.39    437939.92   -3818.5499    26440.652    29097.063 
    9940   -1049.2189    83.727244   -620.87944   -965.49166      4073.85    399697.62    1381.3682    347157.26    414136.23    437799.37   -3836.3863    25721.966     31632.88 
    9941    -1049.923     84.48249   -623.82933   -965.44051    4110.5974    396148.55    1381.6065    341719.46       409525    437201.19   -4359.3225    23441.503    35016.256 
    9942   -1050.4531    85.074463   -626.47004   -965.37862    4139.4005    392947.01    1381.8437     336985.8    405582.38    436272.84   -4793.5194    20616.053    38664.154 
    9943   -1050.7794    85.470956   -629.50915   -965.30849    4158.6924    389275.84    1382.0786    332264.02    402595.48    432968.02   -5776.8435    16306.345    42111.655 
    9944   -1050.9521    85.711463   -631.35822   -965.24066    4170.3946    386988.95    1382.3097    329387.18    401820.85    429758.82   -6048.0392    10406.084    45318.122 
    9945   -1051.0166    85.848825   -632.88029   -965.16777    4177.0781    385077.24    1382.5361    328147.78    401427.87    425656.08     -6053.51    2665.5924    48666.865 
    9946    -1051.042    85.942438   -634.74047   -965.09953    4181.6329    382781.29     1382.757     326761.4    401077.42    420505.06   -5093.2399   -6010.5075    50879.495 
    9947   -1051.0672    86.038233   -635.62482   -965.02899    4186.2939    381615.66    1382.9716    327657.45    401761.28    415428.25   -4597.1903   -14073.777    52881.866 
    9948   -1051.1247    86.162033   -636.81058   -964.96266    4192.3176    380108.05    1383.1792    329284.16    401137.57    409902.41   -4251.9967   -20900.973    54034.091 
    9949    -1051.197    86.301271   -636.93165   -964.89573    4199.0924    379835.33    1383.3794    332745.44    400222.25    406538.28   -3835.9192   -26367.158    53749.534 
    9950   -1051.2308    86.398108   -636.14006   -964.83269    4203.8041    380626.13    1383.5719    337930.85    399784.14     404163.4   -3731.2737   -30250.602    52435.049 
    9951   -1051.1431    86.371951   -635.82916   -964.77114    4202.5314    380863.89    1383.7571    344433.66    397649.42    400508.58   -3151.2025   -33855.165    50778.758 
    9952   -1050.8483    86.144356   -635.01515   -964.70398    4191.4575    381679.52    1383.9351    351024.01     395810.1    398204.45    -2905.919    -34626.77    48111.776 
    9953   -1050.3269    85.696679   -633.61104   -964.63018    4169.6752    383172.25    1384.1062    357240.96    396560.18    395715.61   -3557.5911   -35371.329    45094.616 
    9954   -1049.6443    85.090119   -631.58563   -964.55419    4140.1623    385382.92     1384.271    363959.97    398340.96    393847.84   -4661.7659   -35113.922    41751.036 
    9955   -1048.9207    84.446127   -628.50398   -964.47459    4108.8281    388812.81    1384.4303    372426.46    402309.87     391702.1   -6030.4893   -33620.366    37591.512 
    9956   -1048.2954    83.896663   -626.75286    -964.3987    4082.0933    390707.71    1384.5855    378188.56    405052.18     388882.4   -8309.2859   -31575.697    33224.913 
    9957   -1047.8616    83.538533   -624.77145    -964.3231    4064.6681    392869.95    1384.7373    383307.33    408767.03    386535.49   -11051.139   -28573.165    29876.971 
    9958   -1047.6635    83.415439   -623.46715   -964.24805    4058.6787     394249.7    1384.8867    387370.36    411972.55    383406.18   -14114.898   -24986.449    27251.129 
    9959   -1047.7049    83.536921   -623.16828   -964.16802    4064.5896    394460.89    1385.0341     389492.5    415941.89    377948.28   -17372.147   -20618.377    24663.812 
    9960   -1047.9883    83.896803   -623.55407   -964.09148    4082.1001    393884.68    1385.1796    389907.76    418686.48    373059.79   -20492.062   -16007.093    21702.089 
    9961   -1048.4681    84.458004    -624.2933   -964.01005     4109.406    392894.76    1385.3231    389850.85     419727.7    369105.73    -22541.15   -10997.923    19082.501 
    9962   -1049.0772    85.148711    -625.9504   -963.92849    4143.0132    390844.17    1385.4641    389086.27    419315.57    364130.68   -23813.591   -5598.9941    15411.442 
    9963    -1049.686     85.83194   -627.24616   -963.85411    4176.2565    389221.05    1385.6017    387759.12    419382.67    360521.35    -24751.39   -983.28869    12876.056 
    9964   -1050.0827    86.310882   -627.33507   -963.77184      4199.56    388985.58    1385.7354    388408.88    418850.46    359697.39   -25154.703    3548.0303    8867.6017 
    9965   -1050.0811    86.394374    -627.0231   -963.68678    4203.6224    389211.53     1385.865    390772.22    417545.24    359317.12   -23681.777    6992.6047    5346.0271 
    9966   -1049.5537    85.964222   -625.92812   -963.58945    4182.6928     390329.5    1385.9906    394430.62    415678.42    360879.47   -22104.434    9247.0694    1847.0558 
    9967   -1048.5021    85.012115    -624.2939   -963.49001    4136.3669    392069.15    1386.1127    398324.64    414053.97    363828.83   -20770.711    11238.697   -2444.3319 
    9968   -1047.0088    83.622288   -621.69228    -963.3865    4068.7432    394922.69     1386.232    403097.99    414105.17     367564.9   -19651.724    12969.682   -5968.5179 
    9969   -1045.2276    81.947042   -618.76991    -963.2806    3987.2321    398144.15    1386.3495     408166.5    415095.07    371170.88   -18028.881    13004.816    -8292.789 
    9970    -1043.346    80.173516   -615.04543   -963.17244    3900.9391    402289.48    1386.4666    414121.54     417336.7    375410.22   -16386.286     11373.51   -10211.527 
    9971   -1041.5381    78.477576   -612.46788   -963.06051     3818.421    405104.15    1386.5849    417493.28    418645.87    379173.29   -15951.633    7669.2868   -11237.021 
    9972   -1039.9502    77.005363    -611.1273   -962.94484    3746.7887    406484.13    1386.7055    418612.85    420161.56    380677.99   -15209.856    3632.3212   -11185.844 
    9973   -1038.6966    75.873763   -608.86151    -962.8228    3691.7294    408924.55    1386.8291    419634.25    422574.64    384564.76   -14103.397   -440.37022   -9416.7052 
    9974    -1037.865    75.174375   -607.45385   -962.69064    3657.6998     410360.4    1386.9565    419217.42    423842.08    388021.71   -13444.014   -5396.5667   -7152.8091 
    9975   -1037.5219    74.969497   -607.63013   -962.55236    3647.7313    409958.02    1387.0885    417149.68    423433.63    389290.76     -12340.9   -9917.4559   -5016.3617 
    9976   -1037.6747    75.273821   -608.90155   -962.40088    3662.5385    408274.39    1387.2247    414908.84    420817.96    389096.37   -11104.617   -14358.986   -1956.6106 
    9977   -1038.2674    76.029563   -610.25132   -962.23781      3699.31    406486.15    1387.3646    412374.91    418730.24    388353.31   -11165.014   -18360.886    1023.2026 
    9978   -1039.1658    77.105929   -611.78579   -962.05989    3751.6819    404466.99    1387.5074    408458.76    416919.86    388022.36    -11348.87   -22165.194    3119.6814 
    9979   -1040.2007    78.336845   -615.03675    -961.8639    3811.5736    400444.91    1387.6523    402938.07     412497.9    385898.75   -13063.051   -25294.417     5944.741 
    9980   -1041.1922    79.547289   -617.79764   -961.64492    3870.4693    396962.76    1387.7978    398703.56    408677.44    383507.27   -15319.625   -26177.891    8510.6659 
    9981   -1041.9982    80.589188    -620.7108   -961.40902    3921.1641    393286.27    1387.9424    395267.21     403364.2     381227.4    -16485.77    -26132.29    11193.022 
    9982   -1042.5107    81.359441    -623.4965   -961.15125    3958.6417    389733.08    1388.0846    392243.73    398199.19    378756.33   -17972.277   -25622.884    14047.401 
    9983   -1042.6906    81.811676    -625.2007   -960.87897    3980.6457    387413.11    1388.2231    390942.78    395933.87    375362.68   -20623.017   -23008.751    17080.139 
    9984   -1042.5327    81.942391   -625.92152   -960.59035    3987.0058    386210.88    1388.3569    391229.01    394150.12    373253.51   -22098.966   -20295.955    20687.725 
    9985   -1042.0635    81.777051   -626.71179   -960.28647     3978.961    384912.57    1388.4855       390861    391944.82    371931.89   -24675.758     -17376.1    24559.596 
    9986   -1041.3761    81.405467   -626.96497   -959.97067    3960.8811    384222.03    1388.6083    390584.29    389283.55    372798.25   -27553.067   -14290.458    26976.638 
    9987   -1040.6235    80.986704   -626.78657   -959.63675    3940.5057     384010.3    1388.7251    389305.76    387984.46    374740.67    -30408.56   -10603.052    29154.025 
    9988   -1040.0115    80.709716   -626.77886   -959.30175    3927.0285    383602.12    1388.8358    386835.04    386823.91     377147.4   -32014.445   -7783.0042    30538.405 
    9989   -1039.6688    80.708519   -626.61333   -958.96033    3926.9703    383370.39    1388.9402    384525.27    386640.02    378945.87   -33335.581   -6462.1991    30613.867 
    9990   -1039.6192    81.002919   -626.35679   -958.61625    3941.2947    383242.36    1389.0382    382318.57    387494.28    379914.24   -34480.279   -5568.5282    27812.567 
    9991   -1039.7609    81.502132   -626.55561   -958.25875    3965.5845    382575.47    1389.1298    378997.65    388088.08    380640.67   -35627.026   -5299.2407    25291.688 
    9992   -1039.9583    82.068747   -626.99202   -957.88955    3993.1538    381622.99    1389.2147    375684.35    388566.38    380618.22   -36526.677   -4519.3779    21879.311 
    9993   -1040.0889     82.58787   -626.64095   -957.50101    4018.4124    381558.43    1389.2924    374477.57    388144.86    382052.87    -37004.25   -3748.2776    18416.766 
    9994   -1040.1122    83.008376   -626.31606   -957.10381    4038.8726    381455.66    1389.3629    373533.16    387992.48    382841.33   -37462.383   -4007.8424    15220.923 
    9995   -1040.0146    83.314902    -626.3646   -956.69966     4053.787    380916.26    1389.4263     372876.7    386171.56    383700.53   -38616.686   -4314.0577    13325.934 
    9996   -1039.7914     83.50162   -625.94582   -956.28973     4062.872    380911.14    1389.4822    372455.67    385411.05    384866.69   -41834.945    -2935.776    11060.212 
    9997   -1039.4272    83.552632   -623.64502   -955.87453     4065.354       383072    1389.5307     374546.7    386729.01     387940.3   -44393.827   -1604.4905    8347.6255 
    9998   -1038.8969    83.432808   -621.66926   -955.46407    4059.5238    384865.26    1389.5726    377662.51    386255.77    390677.49   -46278.154    65.758543    4925.0763 
    9999   -1038.1574    83.107684   -618.81001   -955.04972    4043.7045    387674.17    1389.6086    382608.48    385923.66    394490.35   -47711.705    1926.5782    1536.3284 
   10000   -1037.1995    82.563319   -616.01656   -954.63615    4017.2178    390409.31    1389.6399    387277.91    386692.43     397257.6   -50431.165     4000.418   -2584.3327 
Loop time of 155.697 on 2 procs for 10000 steps with 160 atoms

Performance: 5.549 ns/day, 4.325 hours/ns, 64.227 timesteps/s
1201.3% CPU use with 2 MPI tasks x no OpenMP threads

MPI task timing breakdown:
Section |  min time  |  avg time  |  max time  |%varavg| %total
---------------------------------------------------------------
Pair    | 148.12     | 149.52     | 150.91     |  11.4 | 96.03
Neigh   | 0.6573     | 0.66185    | 0.66641    |   0.6 |  0.43
Comm    | 3.3998     | 4.7971     | 6.1945     |  63.8 |  3.08
Output  | 0.32054    | 0.38655    | 0.45255    |  10.6 |  0.25
Modify  | 0.2356     | 0.30201    | 0.36841    |  12.1 |  0.19
Other   |            | 0.03275    |            |       |  0.02

Nlocal:        80.0000 ave          87 max          73 min
Histogram: 1 0 0 0 0 0 0 0 0 1
Nghost:        1751.00 ave        1753 max        1749 min
Histogram: 1 0 0 0 0 0 0 0 0 1
Neighs:        0.00000 ave           0 max           0 min
Histogram: 2 0 0 0 0 0 0 0 0 0

Total # of neighbors = 0
Ave neighs/atom = 0.0000000
Neighbor list builds = 1000
Dangerous builds not checked
unfix           1

Please see the log.cite file for references relevant to this simulation

Total wall time: 0:02:37
