ITEM: TIMESTEP
0
ITEM: NUMBER OF ATOMS
160
ITEM: BOX BOUNDS xy xz yz pp pp pp
0.0000000000000000e+00 1.1150434355800000e+01 0.0000000000000000e+00
0.0000000000000000e+00 1.1150434355800000e+01 0.0000000000000000e+00
0.0000000000000000e+00 1.1150434355800000e+01 0.0000000000000000e+00
ITEM: ATOMS id type x y z
1 1 1.13804 8.33162 2.34703
4 1 9.67171 3.60785 0.320964
5 1 10.2515 2.18057 3.01481
8 1 9.43086 0.0335025 4.92658
9 1 10.9224 10.6264 2.06473
11 1 2.46901 3.38991 2.9845
13 1 6.7647 10.9017 2.61751
14 1 3.50766 0.880232 3.80928
16 1 5.51108 2.90719 4.10657
19 1 6.90887 8.42772 1.01286
21 1 9.635 7.32138 5.03815
22 1 3.84173 6.33483 2.87246
24 1 5.72615 8.32378 3.25921
25 1 4.15984 7.826 0.320758
26 1 0.437859 5.55425 1.33822
31 1 1.46923 2.23389 0.506591
32 1 10.0355 7.8439 0.693862
33 2 5.92391 4.92582 0.775047
36 2 3.27353 9.52521 2.29969
39 2 9.06315 9.43888 2.94572
40 2 8.22456 5.30225 2.44533
41 2 1.48683 5.96365 4.69929
42 2 4.02994 9.38946 5.48422
45 2 4.39466 1.39353 1.34997
47 2 5.32017 5.45735 4.40847
48 2 8.00487 5.97294 0.110204
49 2 6.2093 0.100097 5.22521
50 2 10.5863 4.61385 3.99659
52 2 1.3193 1.31589 4.48525
57 2 7.2807 2.82253 2.11155
58 2 7.53719 5.45156 5.4884
61 2 7.49029 2.15432 5.24051
62 2 1.32633 9.52367 4.92849
66 3 8.73997 4.47811 3.84323
69 3 3.43493 8.96194 4.07417
70 3 4.07082 10.9351 1.90509
71 3 6.15321 1.60414 1.42196
73 3 9.17473 9.41485 0.901932
79 3 2.2511 4.19224 0.930202
82 3 1.70027 11.1388 5.46208
83 3 1.84595 5.44714 3.30779
84 3 8.12633 6.53352 4.316
85 3 6.64652 4.07173 5.06065
87 3 4.15286 4.27236 3.86148
89 3 10.2861 8.60337 2.7208
92 3 4.23186 6.83425 4.64449
95 3 6.53561 3.50431 0.389785
98 3 2.76291 6.17696 0.0428615
99 3 7.48293 9.02934 2.89526
101 3 1.21981 1.7696 2.7843
103 3 8.63346 6.90924 1.54356
105 3 4.08867 2.09626 2.7811
108 3 0.0591455 10.6368 4.34993
115 3 9.34555 10.9784 2.80771
120 3 10.5114 1.68017 4.91475
121 3 6.64988 6.25349 0.680929
125 3 3.22042 1.23054 0.411165
126 3 7.61464 0.564176 4.53248
127 3 5.83138 10.1848 1.25564
128 3 4.67783 5.13232 1.45085
129 3 8.56294 4.57759 1.1076
131 3 10.6771 1.3905 1.00827
135 3 1.26201 3.98368 4.62135
136 3 5.29429 0.181818 3.92962
138 3 2.5949 9.59506 0.808864
140 3 5.46381 8.82394 5.16883
141 3 1.24763 7.68504 4.38411
144 3 6.26189 6.24081 3.26938
146 3 6.95679 4.3888 2.37643
147 3 10.6167 4.1624 2.32405
148 3 8.60777 2.18384 1.40278
151 3 8.62175 9.5764 5.016
152 3 10.63 6.24304 3.78447
154 3 1.65839 10.1386 2.90899
155 3 4.23573 7.96067 2.03995
156 3 0.837172 7.31502 1.06231
157 3 2.65717 2.16605 4.67254
159 3 7.18449 2.48495 3.49611
2 1 2.48351 3.77368 6.23338
3 1 2.81593 9.69457 8.2684
6 1 2.50016 6.65818 7.99923
7 1 9.24781 9.46066 6.94176
10 1 9.0186 0.983782 8.12971
12 1 7.15085 8.58155 8.95974
15 1 3.07852 1.10473 6.54652
17 1 6.01748 2.35505 7.66399
18 1 6.88751 2.12017 10.6579
20 1 0.535779 9.95297 7.33333
23 1 10.6119 5.33082 7.48507
27 1 3.5827 1.64606 9.09745
28 1 8.33608 3.5482 8.66824
29 1 1.8685 7.87861 10.7144
30 1 7.76411 6.25243 8.31557
34 2 9.47219 1.2256 11.0056
35 2 6.06742 10.9791 8.16668
37 2 4.86615 7.78681 8.81323
38 2 3.55815 4.88872 10.9914
43 2 1.35139 4.81292 9.39618
44 2 4.28632 6.08649 6.36756
46 2 6.33594 10.9094 10.889
51 2 10.0645 6.91246 9.52516
53 2 2.92989 10.7049 10.6588
54 2 1.00258 10.7832 9.57121
55 2 5.40299 4.75418 8.86673
56 2 6.28396 8.7283 6.50997
59 2 0.332507 7.63869 6.89116
60 2 1.18735 2.68394 8.38272
63 2 9.50136 9.68379 9.99237
64 2 10.2338 2.42811 6.3976
65 3 3.28378 8.05786 9.25995
67 3 2.57923 9.49779 6.37654
68 3 5.22105 4.95005 10.3601
72 3 6.92695 10.768 6.70076
74 3 0.592448 2.19293 6.91929
75 3 5.91381 1.70304 5.62417
76 3 6.64898 4.33771 8.05514
77 3 1.82375 9.40902 9.86397
78 3 5.74308 8.27963 10.3053
80 3 5.1771 9.25699 7.7871
81 3 9.44034 5.50266 8.8905
86 3 1.76583 1.96898 9.65486
88 3 7.46166 7.98778 7.08332
90 3 2.85494 4.26884 9.78784
91 3 7.25185 1.10359 8.61827
93 3 2.69945 6.11864 5.99276
94 3 4.2066 7.76557 6.6397
96 3 10.922 10.1047 8.97307
97 3 0.433722 4.06751 10.4455
100 3 10.1045 0.711986 9.70975
102 3 0.770402 6.21089 8.95873
104 3 3.85382 10.8005 9.18768
106 3 6.21557 10.1608 9.41517
107 3 11.0418 8.93762 5.96925
109 3 1.44836 8.24344 7.84998
110 3 10.3363 5.73791 10.9478
111 3 10.734 8.25107 10.162
112 3 0.316018 6.21983 6.28456
113 3 10.3811 4.0782 5.60688
114 3 5.0229 0.853432 7.62225
116 3 8.77372 2.5303 10.3028
117 3 2.71839 2.82597 7.68873
118 3 4.82487 4.55969 6.03218
119 3 8.79286 5.69099 6.62931
122 3 6.46619 6.52889 6.0611
123 3 9.84907 7.63291 7.83436
124 3 6.07633 6.79773 8.41304
130 3 9.71244 0.0129195 6.65966
132 3 4.23719 5.97508 7.98307
133 3 1.38185 0.0920325 8.11362
134 3 7.32883 4.99919 10.0686
137 3 0.703671 4.15911 7.95799
139 3 8.12309 7.7157 10.4477
142 3 4.8598 3.04057 9.04938
143 3 8.56591 2.37717 6.53958
145 3 1.4244 0.225753 10.9526
149 3 8.60885 9.65233 8.54772
150 3 4.58743 10.724 5.95768
153 3 5.11572 0.835382 10.3947
158 3 10.1067 2.48928 8.14376
160 3 7.91932 0.295637 11.1322
ITEM: TIMESTEP
500
ITEM: NUMBER OF ATOMS
160
ITEM: BOX BOUNDS xy xz yz pp pp pp
7.5695253781278282e-03 1.1142864830421901e+01 0.0000000000000000e+00
7.5695253781278282e-03 1.1142864830421901e+01 0.0000000000000000e+00
7.5695253781278282e-03 1.1142864830421901e+01 0.0000000000000000e+00
ITEM: ATOMS id type x y z
1 1 1.41317 8.94307 1.81794
4 1 10.3609 3.12951 1.12458
5 1 9.97705 1.21786 3.72136
84 3 9.21591 7.98822 5.17618
9 1 0.927174 0.357669 1.81876
11 1 2.26206 2.82752 2.44742
13 1 6.50112 0.354098 2.85605
14 1 4.15179 1.1718 3.59636
16 1 5.49387 3.22719 1.80454
19 1 6.52314 8.61896 1.11099
113 3 9.60168 3.29107 5.24799
22 1 3.96957 6.65163 3.33159
24 1 7.17704 9.00559 4.05184
159 3 7.47835 1.16365 4.53512
26 1 0.865002 5.74278 1.15241
98 3 2.37267 5.66595 0.388112
32 1 9.66072 7.83017 1.48884
33 2 6.29167 5.78222 0.0691117
36 2 3.99134 9.43277 2.60141
39 2 9.31053 9.91604 2.95163
40 2 7.14642 5.53722 2.75397
41 2 0.773459 6.76019 3.56928
42 2 4.97931 9.18556 5.2515
45 2 4.78667 0.907716 1.04598
47 2 5.53654 4.57769 4.6841
25 1 3.83409 6.91619 0.544321
34 2 9.49436 0.21517 0.646545
50 2 10.1184 4.01411 3.65078
52 2 1.35667 1.6962 4.67096
57 2 8.02843 2.68415 1.793
58 2 8.61221 6.48395 5.17646
61 2 6.69971 2.46036 5.34053
62 2 2.10243 9.98985 4.29323
66 3 8.61282 4.85152 3.57606
69 3 5.36097 8.46823 3.42161
70 3 4.83335 10.8548 2.63535
71 3 6.54986 1.83675 1.65964
118 3 4.1487 5.16115 5.18966
125 3 3.20999 0.515303 0.695653
82 3 2.53787 0.393815 4.69888
83 3 1.79952 6.04441 2.64459
157 3 2.86248 2.4181 4.28211
85 3 5.75468 3.16241 3.78975
87 3 5.62715 5.2918 3.22683
89 3 10.631 10.3276 2.05768
21 1 10.7033 8.99548 5.15344
95 3 6.20967 4.13084 0.29995
92 3 4.24659 7.78321 5.52651
99 3 8.3519 8.84712 2.41824
101 3 0.416736 1.70895 2.89673
103 3 7.85612 6.16799 0.727043
105 3 4.1276 1.98644 2.08187
108 3 0.270651 10.3491 4.41275
115 3 8.59873 0.247302 2.0803
120 3 0.109745 1.27738 5.2633
121 3 5.54271 6.73344 1.62628
79 3 1.57928 3.00781 0.683191
2 1 2.51165 4.35327 4.79338
127 3 4.51068 9.43878 0.775415
128 3 3.69807 4.06169 2.04187
129 3 8.61826 3.60742 0.287231
131 3 10.8862 1.27984 0.603575
135 3 0.568416 3.45722 4.42381
136 3 5.81577 10.4634 4.46964
138 3 2.10733 10.2757 2.52845
160 3 6.54109 10.4089 0.743097
141 3 2.06857 7.69439 4.21232
144 3 7.36304 7.09268 3.70108
146 3 7.62827 4.25112 1.99855
147 3 10.6077 4.88723 2.33943
148 3 9.45011 2.61512 2.69835
151 3 9.00555 10.6831 4.30465
152 3 10.5608 5.94421 4.77721
154 3 3.6401 9.68684 4.13748
155 3 3.18162 8.28163 2.3411
156 3 11.1323 7.98076 2.58407
110 3 9.98946 5.64263 0.0901837
38 2 2.89517 3.99344 0.366573
75 3 4.99376 1.44871 5.54211
73 3 8.42231 8.66744 8.05699
3 1 3.11844 9.38025 7.60947
6 1 2.86452 5.62104 7.89683
7 1 8.29911 9.24366 6.31423
10 1 9.56182 1.64956 9.69243
12 1 5.74198 9.72841 7.79425
15 1 3.3783 0.465664 6.28921
17 1 4.89588 3.74601 7.25179
18 1 6.97165 2.62521 10.3747
20 1 0.420084 10.9441 6.88446
23 1 0.257896 5.48338 6.32635
27 1 4.77522 1.0075 9.10034
28 1 8.47542 4.06964 7.55561
29 1 1.48234 7.66775 9.50235
30 1 8.11201 6.74742 8.15124
158 3 10.8487 4.03614 7.40644
35 2 7.64626 0.771329 8.4968
37 2 5.14179 7.32126 9.35609
150 3 4.66421 10.1309 6.65902
43 2 0.104393 4.03451 8.9598
116 3 8.29452 1.01598 10.9718
46 2 5.73483 9.92121 10.3487
51 2 10.2659 6.76919 10.0543
67 3 1.88916 9.57476 5.93658
54 2 1.14349 10.7349 9.20041
55 2 4.81372 4.20588 9.87766
56 2 5.39393 7.01445 6.60592
59 2 10.4634 8.55558 7.8842
60 2 2.38886 2.79613 7.83857
63 2 8.88141 9.58109 9.47942
64 2 10.3899 2.80489 6.39126
65 3 3.48121 7.36736 9.85673
97 3 10.6215 3.34914 10.4548
68 3 5.27497 5.82572 10.2267
72 3 7.30707 10.5925 6.9623
74 3 1.7433 1.78988 6.57977
153 3 5.52433 1.15528 10.8048
76 3 5.68986 3.45554 8.86534
143 3 6.77065 3.97519 5.66286
78 3 6.2542 8.22829 10.4741
80 3 4.64282 8.33848 8.30026
81 3 9.52517 4.73524 9.08058
86 3 0.16425 0.772787 8.99411
88 3 6.27979 7.43087 8.05383
90 3 1.42087 3.14696 8.80595
91 3 7.85278 2.72818 8.88227
145 3 1.6543 11.0348 10.9441
94 3 2.5272 7.63913 7.30805
96 3 10.432 9.34896 9.25972
126 3 7.31494 1.93781 6.77409
53 2 3.23188 10.0945 11.0412
102 3 0.94837 5.52674 8.94587
104 3 4.46644 10.4419 9.46207
106 3 6.93494 10.3759 9.38341
107 3 10.2927 9.77411 6.58571
109 3 1.43889 9.22387 8.62052
149 3 9.0276 0.13932 8.91957
100 3 9.20083 9.78615 11.099
112 3 0.10869 7.59061 6.69445
48 2 8.75642 5.02574 10.7274
114 3 5.78731 0.760045 7.8732
49 2 6.24104 0.518413 6.30321
117 3 3.82671 2.17344 7.89821
140 3 6.40016 8.36346 5.92975
119 3 8.77664 5.69098 6.56594
44 2 2.58638 7.35007 5.7536
123 3 10.2676 7.11285 8.58934
124 3 4.71052 5.85265 7.41942
130 3 9.56115 1.46692 7.15901
132 3 3.1433 4.62337 9.50464
133 3 2.51879 0.0858098 8.1508
134 3 7.50802 5.48421 9.73717
137 3 2.72413 4.24169 6.99675
139 3 8.96895 7.67533 10.4303
8 1 8.7717 0.587829 5.79853
31 1 0.796874 1.92034 10.411
142 3 4.06551 3.18109 10.7591
77 3 2.03378 9.0155 11.0283
111 3 0.345324 7.50598 11.0342
122 3 6.30928 6.12252 5.64017
93 3 2.05224 6.05685 5.61833
ITEM: TIMESTEP
1000
ITEM: NUMBER OF ATOMS
160
ITEM: BOX BOUNDS xy xz yz pp pp pp
-2.4135160533694133e-02 1.1174569516333678e+01 0.0000000000000000e+00
-2.4135160533694133e-02 1.1174569516333678e+01 0.0000000000000000e+00
-2.4135160533694133e-02 1.1174569516333678e+01 0.0000000000000000e+00
ITEM: ATOMS id type x y z
1 1 0.582563 8.8264 0.683639
4 1 9.79281 2.77941 1.01467
5 1 10.4497 1.40754 4.03473
2 1 2.78926 4.67665 4.34824
9 1 0.711469 0.522476 1.45082
11 1 2.03431 2.97625 1.63372
13 1 6.82503 10.6957 3.31174
14 1 3.49082 0.916767 3.62416
16 1 4.79011 3.74632 2.28909
19 1 6.4843 7.91949 2.96455
33 2 5.84406 6.2171 0.299606
22 1 3.25684 6.79678 1.91407
24 1 8.7263 6.55316 4.40286
159 3 6.98538 2.21396 4.63458
26 1 0.495776 5.82115 1.33788
122 3 6.79216 6.65581 5.0143
32 1 8.95739 7.93486 1.36452
156 3 10.7874 8.39523 3.47588
36 2 3.80225 9.31169 3.03536
39 2 9.78969 9.53554 3.94309
40 2 7.69244 5.03177 1.39555
41 2 0.513502 7.01789 3.74581
125 3 3.76698 0.112839 0.0675575
45 2 4.93969 1.07321 1.03871
47 2 5.6676 5.44075 4.61458
42 2 5.35739 9.79364 5.26695
34 2 9.20169 11.0704 1.50549
50 2 10.3303 4.032 3.08553
52 2 1.6623 2.07475 4.64252
57 2 7.5198 2.2562 2.47199
44 2 2.98473 7.64231 5.21333
61 2 7.56289 3.88245 4.57739
62 2 1.83482 10.271 4.65644
66 3 9.0874 4.3357 4.51316
69 3 5.42449 9.13803 3.54
70 3 5.07378 0.694162 2.74471
71 3 6.06967 2.3171 1.23602
118 3 4.72763 5.20403 3.21082
120 3 9.25315 1.8471 5.47779
82 3 2.42144 0.811473 5.22206
83 3 1.39268 7.21266 2.10025
157 3 2.77572 2.9191 3.88066
85 3 7.2791 3.78785 2.8099
87 3 7.71138 6.22921 2.62577
89 3 10.182 9.78114 1.63836
92 3 4.95613 7.97986 5.30033
53 2 2.65603 10.1946 0.240306
116 3 7.72673 0.369152 1.74082
99 3 8.30612 8.84894 3.04801
101 3 1.16206 1.37158 3.19829
103 3 7.53058 6.1405 0.17243
105 3 3.61948 2.27515 1.43498
108 3 0.0321699 10.4269 4.7735
115 3 9.59137 11.0675 3.29556
93 3 1.31789 5.84069 4.54598
121 3 5.21614 7.08333 1.54707
95 3 5.86295 4.78132 1.04069
79 3 0.913872 2.29389 0.0691949
127 3 3.97634 9.43756 1.35358
128 3 2.66909 4.65796 1.49179
111 3 10.7473 7.44729 1.00559
131 3 10.0224 0.86773 0.612008
135 3 -0.0122181 3.3277 4.35759
136 3 6.33379 11.0288 4.87214
138 3 2.18541 10.4117 2.7889
160 3 6.56045 9.49804 1.22933
141 3 1.70933 8.29577 4.18397
144 3 9.17516 4.72039 2.03648
46 2 7.19626 10.4455 0.0238482
147 3 0.03102 3.92141 1.89721
148 3 9.0071 2.17171 2.61347
151 3 8.80021 9.45692 5.09421
152 3 10.686 5.82495 3.09448
154 3 3.65662 10.2927 4.47309
155 3 3.84732 7.66073 3.55921
124 3 3.88784 5.90157 5.42447
146 3 7.86801 3.73956 0.441451
38 2 2.5912 4.90723 0.0167972
98 3 3.1551 6.4182 0.0776809
73 3 8.19334 8.56733 8.60777
3 1 3.21796 8.9396 7.60014
6 1 2.83016 5.66214 7.5273
7 1 8.54407 8.05491 6.75466
10 1 10.7293 1.26858 10.0278
12 1 5.66588 9.99874 8.4004
15 1 2.71973 0.682893 7.01397
17 1 4.58002 3.35539 6.36977
8 1 7.89313 10.5895 5.87978
20 1 10.5055 0.323939 7.12881
23 1 0.568804 5.69171 6.4122
27 1 4.74357 0.418161 9.53252
28 1 6.56883 4.12805 7.72549
29 1 1.74229 6.81961 9.94288
30 1 8.05378 6.99917 9.27861
158 3 -0.0190848 3.98405 7.03752
35 2 8.4975 1.69878 8.09016
37 2 5.015 6.86051 8.89274
150 3 4.37415 10.168 6.90524
43 2 0.0587504 4.35042 9.37631
142 3 4.9155 2.49375 9.85334
113 3 8.31344 3.84692 6.61836
51 2 10.2166 6.75309 10.7625
67 3 2.06911 9.41494 6.09745
54 2 1.64226 10.6721 9.08167
55 2 4.61697 4.01547 9.64146
56 2 5.90926 7.36227 6.30564
59 2 0.0101612 8.87748 8.46048
60 2 1.85883 3.55727 7.83475
63 2 8.52603 9.9688 9.08483
64 2 10.2377 2.81054 6.25015
65 3 3.37061 7.39343 8.59156
97 3 0.969884 5.06834 10.7918
68 3 4.72213 5.56552 10.0959
72 3 7.54268 10.536 7.95345
74 3 0.523493 1.45518 5.62848
126 3 7.53695 1.23485 6.98885
76 3 4.94445 4.21629 8.14435
18 1 7.0041 2.38356 10.8637
78 3 5.69344 7.52463 10.1271
80 3 5.93463 7.96676 7.86828
81 3 9.48549 4.72588 8.40909
86 3 1.05958 0.428005 7.97579
88 3 5.24877 6.06664 7.36059
90 3 0.890667 2.82392 9.09322
91 3 7.86135 2.66219 9.38298
145 3 1.64554 10.9959 10.709
94 3 2.06683 7.49324 6.65042
96 3 10.4574 10.0251 9.53075
84 3 9.70188 6.47436 5.78364
129 3 10.2441 3.14606 10.2162
102 3 1.2158 5.12107 8.4115
104 3 4.45546 9.57593 9.57373
106 3 6.70434 9.93978 9.81932
107 3 10.2313 9.40656 7.22577
109 3 1.49793 9.27535 8.31987
149 3 9.11916 0.546133 8.64322
110 3 9.76274 5.47461 10.3753
112 3 11.0203 7.45242 7.44815
48 2 8.66885 4.25417 9.65642
114 3 5.7871 1.59282 7.70811
49 2 5.88281 1.17232 6.29319
117 3 3.147 2.4335 7.78392
58 2 8.86404 5.43197 6.84685
119 3 7.85343 6.5719 7.35638
31 1 2.41682 1.84496 10.0255
123 3 0.227412 7.39885 9.45503
25 1 4.08361 8.11201 10.7735
130 3 9.86253 2.18212 7.65381
132 3 2.8835 3.88112 9.82111
133 3 3.13829 0.220126 8.7274
134 3 7.13372 5.19562 9.03275
137 3 2.50275 4.18605 6.4978
139 3 8.96202 7.83664 10.6134
21 1 0.220772 8.86826 6.08643
153 3 6.08617 0.539679 11.1459
140 3 6.70376 9.04508 6.36195
77 3 1.94685 8.64586 10.6716
100 3 8.7682 10.1706 11.0277
143 3 6.30594 4.26162 5.6944
75 3 4.61548 1.66182 5.6115
ITEM: TIMESTEP
1500
ITEM: NUMBER OF ATOMS
160
ITEM: BOX BOUNDS xy xz yz pp pp pp
2.2950445657388130e-02 1.1127483910142601e+01 0.0000000000000000e+00
2.2950445657388130e-02 1.1127483910142601e+01 0.0000000000000000e+00
2.2950445657388130e-02 1.1127483910142601e+01 0.0000000000000000e+00
ITEM: ATOMS id type x y z
1 1 1.14528 8.45142 1.12464
4 1 9.69403 4.56523 0.768469
5 1 9.73455 1.96306 2.75661
2 1 2.6141 4.892 4.90903
9 1 0.682772 0.117916 1.46241
11 1 1.12505 3.06028 1.43715
13 1 6.727 0.626204 2.87046
14 1 4.02226 2.20291 3.73282
16 1 4.84458 4.51248 1.74425
19 1 6.21492 8.42882 2.15563
103 3 7.40477 6.68319 1.07509
22 1 3.94608 7.63325 3.31718
24 1 9.13441 7.66933 5.02457
159 3 6.96961 2.60284 2.94042
26 1 1.03579 5.35739 1.78727
8 1 8.50982 0.55149 5.38427
32 1 9.02356 7.35055 2.41244
156 3 10.7143 7.21868 3.4637
36 2 3.49002 10.5123 2.47128
39 2 10.0757 10.1872 3.81971
40 2 6.94383 5.86985 2.65491
41 2 1.20857 7.44794 3.65685
139 3 8.98248 8.22492 0.138485
45 2 4.13787 1.70145 1.16343
47 2 5.33769 5.16793 4.85727
42 2 6.15453 8.86196 4.91302
34 2 9.13241 10.4372 1.4215
50 2 10.5024 5.29485 3.46311
52 2 0.966145 2.51228 3.99447
57 2 7.19335 2.68665 1.11342
64 2 9.68168 2.66875 5.4584
61 2 7.16623 3.08106 4.6884
62 2 2.13051 9.93623 4.34307
98 3 2.0241 6.21377 0.113479
69 3 4.72103 9.45661 2.99402
70 3 4.81333 0.637573 2.24116
71 3 4.3456 2.92099 2.07676
118 3 4.15919 5.14509 3.71659
120 3 8.30096 2.0362 4.24759
67 3 2.55414 8.24626 4.52564
83 3 2.28618 7.17433 2.4266
157 3 2.27612 3.10777 4.03835
85 3 6.75146 4.95527 4.04493
87 3 7.3297 7.1786 3.64674
89 3 10.4784 9.64463 1.98367
25 1 4.11795 6.5886 0.214153
155 3 5.28663 7.07352 4.78498
116 3 6.81292 0.973862 0.937113
99 3 8.33252 9.23619 2.40407
101 3 0.604592 1.46108 2.99679
84 3 9.47793 5.48921 4.73529
105 3 2.24192 1.24459 1.41886
108 3 10.1273 0.261407 4.90926
115 3 8.7111 0.0894242 2.76892
154 3 2.93571 0.192262 3.83649
121 3 5.40402 6.65552 1.9204
95 3 6.69159 4.44891 1.53681
160 3 5.48109 9.42684 0.778846
127 3 2.71961 9.94716 0.887525
128 3 2.52215 4.0832 1.32868
111 3 0.0670163 6.4781 0.82474
131 3 10.1004 0.867154 0.860895
135 3 10.2505 3.26553 3.88471
136 3 7.09051 10.5198 4.90013
138 3 1.94521 9.72322 2.7816
152 3 1.5314 6.09023 4.34765
141 3 0.49384 9.56491 4.1434
144 3 9.41861 5.60023 2.05331
143 3 5.57909 2.93037 4.75626
147 3 0.124998 4.06008 2.27159
148 3 8.71918 3.12666 1.34499
151 3 9.27786 9.45312 5.39114
68 3 4.3826 4.69589 0.0741078
125 3 4.49382 0.254796 0.0664476
53 2 3.95238 9.59414 0.0414686
73 3 9.16298 7.63658 9.28498
3 1 3.81061 9.05592 8.37851
6 1 3.31552 4.92086 7.71321
7 1 9.26052 8.19127 7.47104
10 1 10.8908 2.23012 10.5376
12 1 6.96754 9.51072 7.82502
15 1 2.98719 10.7863 7.06593
17 1 3.95263 2.7976 6.52315
153 3 6.64282 0.0553591 9.83224
20 1 0.191872 0.109519 6.71404
23 1 0.863879 6.07119 6.97126
27 1 5.22486 1.21346 9.18414
28 1 6.08493 3.96925 7.25853
29 1 2.01684 7.0598 9.21163
30 1 8.39625 6.00812 8.62948
158 3 10.3133 3.69055 6.59329
35 2 8.20115 1.09058 7.54947
37 2 5.24872 6.54594 8.61971
150 3 5.34171 10.7036 7.62436
43 2 10.8741 4.61224 9.50961
82 3 1.7205 10.4253 5.88399
113 3 8.55111 4.17146 7.9479
51 2 10.3919 7.319 10.6412
49 2 5.70234 0.171114 6.24773
54 2 1.64824 0.307893 9.87298
55 2 5.08628 3.48896 9.79653
56 2 6.83573 6.77686 6.59262
59 2 11.1257 10.0034 9.26874
60 2 0.747481 3.02931 6.98721
63 2 8.51063 8.93569 10.0644
38 2 2.16415 4.74251 10.7943
65 3 3.6798 6.84707 8.30813
124 3 4.22681 4.57752 6.16901
44 2 3.75378 7.42922 6.34765
72 3 8.01384 10.7175 7.26918
66 3 8.07683 3.63995 5.97043
126 3 6.89226 1.40657 6.32156
76 3 5.30017 4.93922 8.9601
146 3 7.4102 3.05825 10.6504
78 3 5.52832 7.04981 10.307
80 3 5.25899 7.37226 7.01766
81 3 10.2982 5.3775 7.70802
86 3 0.317408 0.494191 8.56342
88 3 7.03305 6.96788 8.27986
90 3 11.1189 3.09618 8.58378
91 3 6.74599 2.34612 8.31134
142 3 4.28368 2.2315 10.5764
94 3 2.85817 8.58646 6.94825
96 3 9.50136 9.9346 9.30887
79 3 1.63509 2.16206 10.3574
129 3 9.57949 3.776 10.005
102 3 0.985272 5.57961 9.01018
104 3 4.91845 9.72182 9.6549
106 3 6.95601 8.78236 9.96548
107 3 11.0963 9.40431 7.73872
109 3 2.04562 9.90604 9.10304
149 3 8.86815 1.70935 8.98438
110 3 10.0356 5.88334 10.1174
112 3 10.7397 7.32064 6.12739
48 2 8.24125 3.25528 9.30668
114 3 4.51019 2.93946 8.07696
145 3 0.595765 10.5903 10.7346
117 3 2.37287 1.81525 6.80025
58 2 9.27677 4.72197 6.48497
119 3 8.43506 6.53587 6.55632
31 1 2.58623 2.25549 8.70593
123 3 0.718816 8.23443 10.1744
77 3 3.37322 8.10038 10.8775
130 3 9.41114 1.7916 6.80563
132 3 2.97505 4.05207 9.36172
133 3 3.01564 0.74747 8.90754
134 3 7.56828 5.10654 10.0159
18 1 8.05883 1.02363 10.705
97 3 0.672347 3.97776 10.7546
21 1 0.984431 8.66 6.39333
46 2 6.38626 10.0457 10.8391
137 3 1.63892 4.35093 6.65576
140 3 7.11034 8.51897 6.30077
93 3 2.7753 6.10048 6.61065
33 2 6.6109 6.08601 10.9942
92 3 4.83859 9.25058 5.955
122 3 6.3111 5.3983 6.43547
100 3 8.31207 10.2709 11.1151
75 3 4.2464 0.734188 5.80629
74 3 0.506582 2.20661 5.68021
ITEM: TIMESTEP
2000
ITEM: NUMBER OF ATOMS
160
ITEM: BOX BOUNDS xy xz yz pp pp pp
-2.2853572145411505e-02 1.1173287927945388e+01 0.0000000000000000e+00
-2.2853572145411505e-02 1.1173287927945388e+01 0.0000000000000000e+00
-2.2853572145411505e-02 1.1173287927945388e+01 0.0000000000000000e+00
ITEM: ATOMS id type x y z
1 1 1.43003 9.22942 1.97368
4 1 9.56995 4.11783 0.260797
5 1 10.2834 2.02833 2.67297
2 1 2.01238 4.91643 5.01246
9 1 0.678336 0.523568 0.980606
11 1 2.42456 2.46349 0.503939
13 1 6.87574 -0.00936826 3.09329
14 1 4.57349 2.139 3.92787
16 1 4.1855 4.3756 2.46867
19 1 7.06671 7.83805 1.32153
103 3 8.28364 6.62751 3.07381
22 1 3.92348 7.53713 2.46287
24 1 9.32947 7.97538 3.81182
159 3 7.41929 1.82007 3.50797
26 1 0.867238 5.99214 1.33421
25 1 3.61551 6.08062 0.566928
32 1 9.14454 6.14941 1.67528
156 3 11.0886 7.62552 2.27604
36 2 3.62523 10.6965 3.4643
39 2 9.7747 10.9812 4.18424
40 2 6.89199 6.0412 3.38711
41 2 1.07804 7.62538 3.6127
82 3 0.879297 10.7526 5.35952
45 2 4.88785 1.53029 1.10429
47 2 4.90748 5.43379 5.04769
42 2 5.57229 8.85563 4.17847
34 2 9.7304 9.95228 1.58648
50 2 10.6091 4.6738 3.75763
52 2 2.25858 2.74365 2.72965
57 2 6.87545 2.9449 2.19369
33 2 6.30254 5.2644 0.689358
61 2 7.26971 1.78007 5.3646
62 2 1.06646 10.9538 3.80976
100 3 7.96863 10.4893 0.384918
69 3 3.48181 9.38695 2.42542
70 3 4.91268 -0.018251 2.44372
71 3 5.33185 3.009 2.49588
118 3 3.91149 5.77751 3.86172
139 3 9.60827 8.48991 0.277436
67 3 2.40113 6.86498 4.89661
83 3 2.14363 7.03207 2.27836
157 3 2.53391 3.02091 4.21037
85 3 6.31604 4.67295 4.26863
87 3 5.93166 7.72016 3.04926
89 3 11.0003 10.1597 3.26691
84 3 9.28609 5.04148 4.93243
155 3 4.06648 8.03986 4.28298
116 3 6.49823 1.54717 1.51812
99 3 8.3822 8.78997 1.9917
101 3 1.01061 2.28601 1.86892
92 3 4.61172 10.0215 4.61222
105 3 3.34218 1.70532 2.16095
108 3 10.8807 1.12246 4.02098
115 3 8.83429 11.0819 2.80762
154 3 2.56557 0.287504 4.25328
121 3 5.26589 5.81281 2.03972
95 3 7.28538 4.72281 2.07768
160 3 5.60175 9.34018 1.26755
127 3 2.96825 10.207 0.00648513
134 3 8.23139 5.03327 0.0325551
111 3 0.747697 7.88407 0.399466
131 3 10.1949 0.552756 0.969478
135 3 10.7254 3.17574 3.98106
136 3 7.05799 9.42244 3.81009
138 3 1.63529 10.8375 2.22205
152 3 0.951765 5.32086 3.68787
141 3 1.52343 9.28955 3.88364
144 3 10.3384 5.11513 2.13562
112 3 -0.0118223 7.3511 4.97968
147 3 2.38958 3.96401 1.55777
148 3 8.76912 2.72971 1.85142
151 3 9.27972 9.63813 5.17641
143 3 5.82918 2.50866 5.48719
126 3 6.49742 0.128949 5.24795
53 2 4.053 9.51332 0.876442
18 1 8.40828 1.30946 0.419814
122 3 6.05283 6.71674 5.02011
142 3 4.4618 2.88617 0.196089
120 3 8.88266 0.843234 5.48927
73 3 9.2762 8.58427 9.31784
3 1 4.20066 8.7222 8.5591
6 1 2.92178 5.52016 7.55938
7 1 9.42809 7.95459 7.51526
10 1 11.0365 1.33462 9.11085
12 1 6.70714 9.33328 8.29054
15 1 2.43126 11.1714 6.99508
17 1 3.25744 2.77195 6.33245
153 3 7.0908 0.31478 9.7212
20 1 10.0294 10.6908 6.878
23 1 0.505862 6.13756 6.49683
27 1 4.88226 0.215666 9.02378
28 1 5.96972 3.87125 6.86729
29 1 1.95513 7.36174 10.1695
30 1 8.22542 7.18827 10.0073
158 3 10.3611 3.91957 6.64678
35 2 7.92579 1.12084 8.18182
37 2 5.72067 6.23512 9.40131
150 3 4.84834 10.4325 7.52241
43 2 10.4166 5.51545 9.16198
64 2 9.78279 2.3356 5.84702
113 3 7.33091 5.69269 6.46007
51 2 10.9788 8.86106 10.6281
145 3 0.762653 10.1764 10.993
54 2 2.19747 10.8028 10.0813
55 2 5.40804 3.16838 9.88243
56 2 6.38481 7.24194 6.42595
59 2 0.972922 8.8028 8.1965
60 2 0.704578 3.21665 7.26018
63 2 8.58366 10.2019 9.80338
38 2 1.1817 4.54455 10.2301
65 3 3.83461 6.09208 9.32371
124 3 4.26487 4.34676 6.37986
44 2 3.26535 8.09826 5.67202
72 3 8.40273 10.5481 7.93859
74 3 0.0975062 1.79989 6.2832
128 3 4.93838 4.57673 11.1126
76 3 6.44109 4.90906 8.60644
146 3 7.36376 2.69288 8.414
75 3 4.0608 1.2339 5.91521
80 3 4.28811 6.67922 6.38858
81 3 10.3214 6.31857 7.79286
86 3 0.821449 10.6141 8.45478
88 3 5.7516 7.50503 8.38094
90 3 0.197215 3.06654 8.67092
91 3 6.52093 1.07273 7.19369
66 3 8.4369 3.05138 5.93716
94 3 2.61758 9.44328 6.51907
96 3 9.91816 11.0289 9.71643
79 3 1.33769 1.17771 10.4589
129 3 9.05137 4.5755 8.9935
102 3 1.00506 5.28214 8.75937
104 3 4.81646 9.95822 9.74515
106 3 7.07781 9.17375 10.1451
107 3 10.874 9.13619 7.452
109 3 2.37639 9.06136 8.92368
149 3 8.92314 2.41104 10.0034
110 3 10.0383 6.36753 10.5202
8 1 7.4715 9.99693 5.92047
48 2 7.88045 3.61168 9.61804
114 3 4.53184 2.65854 8.64161
98 3 1.76983 5.76671 10.993
117 3 2.14399 2.02967 7.24336
58 2 8.83864 4.82672 6.47662
49 2 5.15901 0.216933 6.40467
31 1 2.09537 2.103 9.11876
123 3 0.297608 8.02281 9.34237
78 3 6.53006 6.92146 10.7174
130 3 9.48319 1.40917 7.96525
132 3 2.49033 3.68648 10.2061
133 3 3.03318 0.632417 9.00006
140 3 5.94794 8.79899 5.96553
119 3 7.73783 8.05399 7.0888
46 2 6.19619 10.3985 11.0542
93 3 1.52235 7.49373 7.25823
68 3 6.71497 3.1295 10.6907
137 3 1.76759 4.36217 6.85205
77 3 3.81774 7.75399 11.1727
125 3 5.30864 0.476726 11.1642
21 1 0.645563 8.9975 5.76439
97 3 0.182975 3.79239 11.16
ITEM: TIMESTEP
2500
ITEM: NUMBER OF ATOMS
160
ITEM: BOX BOUNDS xy xz yz pp pp pp
9.9284641033605681e-03 1.1140505891696630e+01 0.0000000000000000e+00
9.9284641033605681e-03 1.1140505891696630e+01 0.0000000000000000e+00
9.9284641033605681e-03 1.1140505891696630e+01 0.0000000000000000e+00
ITEM: ATOMS id type x y z
1 1 1.22099 9.03552 2.20399
21 1 1.50777 8.8492 5.35565
5 1 10.667 2.4154 2.06189
2 1 1.6629 3.2878 3.49283
9 1 1.71866 0.251147 0.884939
11 1 1.84915 2.70977 0.563406
13 1 7.11813 10.0163 3.04931
14 1 4.78256 1.07553 4.00311
16 1 6.1557 4.28145 4.29236
19 1 5.15746 7.34743 2.30203
103 3 7.96991 7.4836 1.36379
22 1 2.93015 6.59515 2.44238
24 1 9.8941 8.71542 3.74729
159 3 8.05443 3.44616 3.49964
26 1 0.110796 5.31866 0.587133
67 3 2.49961 6.87708 5.11855
32 1 9.75067 7.4181 1.22889
156 3 9.99879 6.1402 3.21075
36 2 3.72348 10.034 2.92817
39 2 10.1829 0.129857 4.35038
40 2 7.49822 7.25577 2.80272
41 2 0.574658 6.3357 4.02115
122 3 8.44134 7.65528 4.93246
45 2 4.47083 1.03772 0.760531
78 3 5.78737 7.51661 0.365985
42 2 6.8616 7.97657 5.17111
34 2 9.4811 10.5228 1.60651
50 2 9.20737 4.76389 3.54099
52 2 4.02968 4.3379 2.5935
57 2 7.46087 2.07339 2.40605
33 2 6.07184 4.65552 0.940584
136 3 7.22769 9.72444 5.06516
62 2 1.35582 0.59233 4.03065
77 3 2.9656 6.8462 0.381954
69 3 3.52258 8.39021 2.26031
70 3 3.34153 1.22948 1.77755
71 3 7.14874 3.63717 1.6256
118 3 3.18757 5.4922 3.65959
139 3 10.4297 9.1965 0.99484
82 3 1.28344 10.6945 5.39487
83 3 0.878891 6.72333 2.37851
157 3 4.24124 3.32639 3.82989
85 3 5.16204 6.99706 4.09773
87 3 6.85407 8.44997 3.40984
89 3 10.9238 10.4787 3.12253
111 3 0.437649 7.49388 0.416735
25 1 3.43043 4.92598 0.106948
116 3 5.83747 1.14302 1.84028
99 3 8.59999 9.58562 2.48027
101 3 1.15689 1.96034 2.2565
92 3 5.25552 10.1367 3.40621
105 3 4.5626 3.52809 1.38241
108 3 11.069 1.21481 4.23668
115 3 8.95225 0.712246 2.72286
154 3 2.47602 1.54683 4.29849
121 3 5.7245 5.47235 2.4285
95 3 7.91414 5.74313 2.95648
160 3 3.69601 10.4076 1.14356
127 3 1.83226 9.15527 0.280394
120 3 8.89879 1.42997 5.01029
106 3 6.26934 9.89771 1.17382
131 3 10.9085 0.325819 1.1724
135 3 10.3214 3.07495 3.84173
44 2 4.16972 7.75997 5.20209
138 3 1.9766 10.2797 3.05896
152 3 1.20116 4.98719 4.69267
141 3 3.07648 8.79651 4.48676
144 3 9.77922 4.22466 2.01386
112 3 0.335987 7.81001 4.64433
147 3 2.48309 4.1511 1.73503
148 3 8.35694 1.90516 1.11689
84 3 9.12044 5.54551 5.4182
100 3 8.84309 10.7904 0.0120894
126 3 6.54928 2.13579 3.99703
53 2 3.30043 8.76644 0.699638
4 1 8.66626 4.29679 0.767022
91 3 6.91398 0.468164 5.33781
64 2 9.75084 2.79133 5.37983
47 2 3.13295 5.50382 5.39763
134 3 7.37606 5.44018 0.0556101
151 3 9.99222 10.3336 5.42123
73 3 9.15958 8.70937 10.3267
3 1 4.35212 9.41896 8.01785
6 1 3.30576 5.26127 8.15936
7 1 9.54965 8.0852 6.87257
10 1 10.4053 1.50404 10.567
12 1 7.12568 9.06104 8.30809
15 1 2.62897 10.8261 6.52259
17 1 3.70165 2.65001 5.78784
153 3 6.81866 10.2222 9.76397
20 1 10.7932 10.5403 7.04372
23 1 0.518759 5.52105 6.7273
27 1 5.90871 0.612537 8.48728
28 1 5.7104 3.78915 7.5595
29 1 1.86198 7.42978 10.1545
30 1 7.63605 7.81667 10.7939
158 3 9.59125 3.6167 7.29289
35 2 8.62445 2.06114 8.09058
37 2 4.73675 7.25613 10.0978
150 3 5.80049 10.259 7.51417
43 2 9.65725 6.83127 9.17737
61 2 7.0534 2.13458 5.59349
113 3 6.52525 5.24158 6.22274
51 2 10.9907 8.48976 10.5945
145 3 10.5499 10.1679 9.18431
54 2 1.73996 10.6796 8.97575
55 2 4.77368 3.26857 9.91432
56 2 6.54597 6.27741 7.97426
59 2 2.15356 7.81005 7.70797
60 2 1.21819 2.58023 7.34528
63 2 9.09002 10.3433 9.84451
38 2 0.733865 4.36207 9.54629
65 3 3.51109 7.35593 9.05975
124 3 3.8114 4.45962 6.43211
125 3 5.30648 0.376316 10.3393
72 3 8.65469 9.8811 8.06202
110 3 9.56129 6.43599 10.7994
128 3 5.22002 4.73463 10.6581
76 3 5.28887 5.51471 8.64229
146 3 6.9029 1.85459 7.26275
66 3 8.12165 3.25294 5.8844
80 3 4.33901 6.62403 6.38289
81 3 9.59644 6.4491 7.31363
86 3 0.933251 0.16737 7.83174
88 3 5.78967 7.86284 8.55932
90 3 0.578356 2.94219 8.949
49 2 5.72746 10.5545 5.83041
137 3 1.48753 3.98683 7.21278
94 3 2.87914 8.81285 6.83053
96 3 8.53181 1.28173 9.48845
79 3 1.50086 0.739965 10.2332
129 3 7.33434 4.30188 8.31125
102 3 10.8859 5.32743 8.81958
104 3 4.59217 8.98388 9.90109
97 3 0.0336688 3.48681 11.013
107 3 0.692941 8.43596 7.31211
109 3 1.78448 9.04376 9.07253
149 3 9.05043 3.75412 10.28
68 3 6.34556 2.97319 10.5119
142 3 4.16862 2.39105 10.9537
48 2 7.46922 4.26444 10.0374
114 3 5.01469 2.3788 8.65221
18 1 7.25731 1.2286 11.0765
117 3 2.76751 1.997 7.42446
58 2 8.74056 4.76906 6.80874
8 1 8.2861 10.8232 6.16505
31 1 2.95811 2.09826 9.31397
123 3 10.8695 7.88535 8.90782
74 3 0.0698802 2.21909 6.30026
130 3 9.59002 1.17268 7.10596
132 3 3.20074 3.97022 9.53385
133 3 3.26347 0.259524 8.45535
140 3 7.20067 7.38811 6.81831
119 3 7.82827 6.64839 8.96971
46 2 5.6025 10.0376 10.8824
93 3 1.70467 6.2856 7.75561
143 3 5.40897 3.05787 5.91635
98 3 1.60521 5.51052 10.0983
155 3 5.26788 8.96111 5.65967
75 3 4.37023 0.620797 5.79953